INSANE! Membrane UpperLeaflet>DPPC:DIPC:CHOL=20.0:65.0:15.0 LowerLeaflet>DPPC:DIPC:CHOL=20.0:65.0:15.0
73245
    1DPPC   NC3    1  14.860  10.051   7.329 -0.3681  0.3733 -0.1093
    1DPPC   PO4    2  15.189   9.735   7.376  0.3780 -0.1249 -0.5036
    1DPPC   GL1    3  15.299   9.750   6.936  0.0208 -0.2087 -0.0291
    1DPPC   GL2    4  15.602   9.768   6.901  0.1357  0.2903  0.1341
    1DPPC   C1A    5  15.173   9.958   6.622  0.0746  0.0938  0.1916
    1DPPC   C2A    6  15.111   9.931   6.197 -0.0494 -0.0603  0.1042
    1DPPC   C3A    7  14.947  10.013   5.746  0.0442  0.2063 -0.0234
    1DPPC   C4A    8  15.012   9.892   5.374 -0.0651  0.0230 -0.1841
    1DPPC   C1B    9  15.437   9.584   6.457  0.1023 -0.1183 -0.1462
    1DPPC   C2B   10  15.428   9.588   5.962 -0.0396  0.0241  0.1568
    1DPPC   C3B   11  15.330   9.486   5.479 -0.0806 -0.1067  0.0486
    1DPPC   C4B   12  15.064   9.468   5.132  0.2736  0.1656  0.1002
    1DPPC   NC3   13  13.042  21.935   6.885 -0.1560  0.1659  0.0678
    1DPPC   PO4   14  12.825  22.163   6.524  0.0494 -0.0326  0.0279
    1DPPC   GL1   15  12.983  21.793   6.325  0.1639 -0.4348  0.0612
    1DPPC   GL2   16  13.226  21.633   6.522  0.0969 -0.0689 -0.4637
    1DPPC   C1A   17  13.007  21.805   5.871 -0.0711 -0.1731  0.1221
    1DPPC   C2A   18  12.998  21.768   5.473  0.1791  0.2387  0.2879
    1DPPC   C3A   19  12.963  21.791   5.128 -0.2931  0.2859  0.1498
    1DPPC   C4A   20  13.237  21.817   4.744  0.3639  0.1091  0.2466
    1DPPC   C1B   21  13.365  21.527   6.064 -0.2457  0.1394  0.1366
    1DPPC   C2B   22  13.424  21.533   5.628  0.0830  0.2008 -0.1398
    1DPPC   C3B   23  13.450  21.576   5.247 -0.3249  0.1294 -0.1753
    1DPPC   C4B   24  13.661  21.592   4.821  0.2064 -0.0320  0.0757
    1DPPC   NC3   25  13.593  15.482   6.642  0.0304 -0.2371  0.0760
    1DPPC   PO4   26  14.078  15.535   6.626  0.1530  0.0419 -0.2617
    1DPPC   GL1   27  14.016  15.694   6.206 -0.2510 -0.1010 -0.0318
    1DPPC   GL2   28  13.698  15.710   6.179 -0.0567 -0.0321 -0.2638
    1DPPC   C1A   29  14.113  15.947   5.991 -0.0693 -0.0484  0.1920
    1DPPC   C2A   30  14.164  15.949   5.627 -0.2344 -0.2112  0.1327
    1DPPC   C3A   31  14.204  15.862   5.222  0.1596 -0.2950  0.2389
    1DPPC   C4A   32  14.082  15.912   4.844 -0.0170 -0.0325 -0.1182
    1DPPC   C1B   33  13.670  15.958   5.773  0.3464  0.0245 -0.0988
    1DPPC   C2B   34  13.718  15.975   5.349 -0.0879 -0.0824 -0.2555
    1DPPC   C3B   35  13.608  16.040   4.813 -0.3488 -0.2364  0.2982
    1DPPC   C4B   36  13.790  16.098   4.336 -0.0540  0.1302  0.4250
    1DPPC   NC3   37  16.713  15.629   6.547  0.0266 -0.1337 -0.0706
    1DPPC   PO4   38  16.962  15.190   6.624 -0.0629 -0.2356  0.2327
    1DPPC   GL1   39  16.793  15.172   6.224  0.2369  0.3633 -0.1985
    1DPPC   GL2   40  16.798  15.462   6.042  0.1656  0.0700 -0.0156
    1DPPC   C1A   41  16.709  14.987   5.797 -0.0494 -0.1073  0.1996
    1DPPC   C2A   42  16.746  14.925   5.273  0.0430  0.1175 -0.0098
    1DPPC   C3A   43  16.763  14.684   4.883 -0.0598 -0.0253  0.3076
    1DPPC   C4A   44  16.755  14.348   4.470  0.0188 -0.2258 -0.1392
    1DPPC   C1B   45  16.814  15.448   5.567 -0.2894  0.3121 -0.3386
    1DPPC   C2B   46  16.786  15.402   5.080  0.1366  0.0752 -0.1320
    1DPPC   C3B   47  16.809  15.233   4.767  0.0876 -0.1297 -0.2984
    1DPPC   C4B   48  16.674  15.317   4.420  0.0933 -0.3988  0.1457
    1DPPC   NC3   49  15.049  22.440   6.653 -0.3034  0.1468  0.2202
    1DPPC   PO4   50  14.811  22.727   6.528  0.0380 -0.2862  0.1215
    1DPPC   GL1   51  14.745  22.780   6.149  0.0077  0.2269  0.1321
    1DPPC   GL2   52  15.001  22.921   6.043 -0.0290 -0.3578 -0.0122
    1DPPC   C1A   53  14.629  22.575   5.826  0.1467  0.2781  0.3359
    1DPPC   C2A   54  14.695  22.467   5.426 -0.3743  0.2952 -0.1781
    1DPPC   C3A   55  14.792  22.545   5.002 -0.3482  0.4651  0.2744
    1DPPC   C4A   56  14.895  22.737   4.645 -0.2675  0.1616  0.1218
    1DPPC   C1B   57  14.882  22.918   5.647 -0.1517 -0.0187 -0.1010
    1DPPC   C2B   58  14.893  22.895   5.313 -0.0693 -0.1408 -0.1037
    1DPPC   C3B   59  14.877  23.076   4.973  0.4008 -0.0631  0.0375
    1DPPC   C4B   60  14.703  23.318   4.691 -0.2205  0.1722 -0.2443
    1DPPC   NC3   61  19.495  20.299   6.157 -0.0369  0.2318 -0.1540
    1DPPC   PO4   62  19.960  20.015   6.269 -0.0558  0.1040 -0.1321
    1DPPC   GL1   63  19.945  19.936   5.925 -0.0350  0.1503  0.1335
    1DPPC   GL2   64  19.911  20.256   5.836 -0.1951 -0.0804  0.0293
    1DPPC   C1A   65  19.734  19.761   5.519  0.0368 -0.2495  0.0573
    1DPPC   C2A   66  19.663  19.740   5.051  0.1560  0.3216  0.2464
    1DPPC   C3A   67  19.626  19.781   4.659 -0.2886  0.0442  0.1735
    1DPPC   C4A   68  19.853  19.664   4.267 -0.0919 -0.0046  0.1610
    1DPPC   C1B   69  20.074  20.134   5.467 -0.0041  0.0604 -0.0310
    1DPPC   C2B   70  20.260  20.186   5.080  0.1398  0.0305  0.0524
    1DPPC   C3B   71  20.146  19.844   4.772 -0.2310 -0.4161  0.0819
    1DPPC   C4B   72  20.252  19.502   4.502 -0.0068 -0.2542  0.0137
    1DPPC   NC3   73  12.666   6.004   7.489  0.0475  0.3613  0.1945
    1DPPC   PO4   74  13.071   5.981   7.679  0.3421 -0.2376 -0.0726
    1DPPC   GL1   75  13.231   5.914   7.233 -0.0749  0.1866  0.0845
    1DPPC   GL2   76  13.382   6.164   7.198 -0.2013 -0.2248 -0.0112
    1DPPC   C1A   77  13.033   5.903   6.815  0.1536 -0.1699  0.2439
    1DPPC   C2A   78  13.038   6.097   6.522 -0.1800  0.3667  0.1323
    1DPPC   C3A   79  13.051   6.391   6.150 -0.1759  0.1636 -0.0305
    1DPPC   C4A   80  13.125   6.659   5.870 -0.0840 -0.1180 -0.0638
    1DPPC   C1B   81  13.479   6.217   6.840 -0.1468 -0.0461  0.1290
    1DPPC   C2B   82  13.222   6.556   6.643  0.1309 -0.0182 -0.2376
    1DPPC   C3B   83  13.134   6.866   6.334 -0.0909 -0.1233 -0.3740
    1DPPC   C4B   84  12.840   7.072   6.254 -0.3578  0.0009 -0.2824
    1DPPC   NC3   85   8.414  12.679   7.064 -0.2937 -0.0881 -0.0116
    1DPPC   PO4   86   8.742  13.016   7.022  0.1381 -0.1977  0.0830
    1DPPC   GL1   87   8.743  13.101   6.650  0.0790 -0.0349  0.0777
    1DPPC   GL2   88   8.520  13.300   6.538  0.1803  0.0653 -0.1207
    1DPPC   C1A   89   8.752  12.950   6.186  0.0880 -0.1776  0.0179
    1DPPC   C2A   90   8.685  12.977   5.716 -0.0661  0.0585  0.0928
    1DPPC   C3A   91   8.854  13.069   5.293  0.1462 -0.0507  0.0555
    1DPPC   C4A   92   9.111  13.421   5.037  0.0595  0.1297  0.1029
    1DPPC   C1B   93   8.400  13.298   6.099  0.1977  0.2077 -0.0705
    1DPPC   C2B   94   8.191  13.220   5.723 -0.0335  0.3297  0.4286
    1DPPC   C3B   95   7.960  13.181   5.268  0.1756  0.0944 -0.3120
    1DPPC   C4B   96   7.545  13.028   5.209 -0.0513  0.0310  0.1027
    1DPPC   NC3   97  17.620   8.834   7.514 -0.3921 -0.3188 -0.3836
    1DPPC   PO4   98  17.536   9.026   7.067 -0.0266 -0.0515  0.1141
    1DPPC   GL1   99  17.271   8.842   6.698 -0.0524 -0.0567 -0.1546
    1DPPC   GL2  100  17.058   9.106   6.603  0.0056 -0.1571  0.2108
    1DPPC   C1A  101  17.325   8.823   6.248 -0.2059  0.4547 -0.0323
    1DPPC   C2A  102  17.306   8.822   5.750 -0.0798  0.1634 -0.0968
    1DPPC   C3A  103  17.320   8.780   5.268 -0.1530  0.3789  0.0422
    1DPPC   C4A  104  17.206   8.552   4.956 -0.0039 -0.0185 -0.0613
    1DPPC   C1B  105  16.969   9.155   6.236  0.2740  0.1665 -0.0964
    1DPPC   C2B  106  17.040   9.376   5.974  0.0603  0.3751 -0.1195
    1DPPC   C3B  107  16.922   9.643   5.594  0.0213  0.0631  0.3974
    1DPPC   C4B  108  16.989   9.755   5.236  0.0027 -0.0147 -0.0926
    1DPPC   NC3  109  27.080   8.852   6.077  0.1781  0.3467 -0.0119
    1DPPC   PO4  110  27.153   9.281   5.966 -0.1601  0.3648 -0.0501
    1DPPC   GL1  111  27.000   9.412   5.582 -0.0268 -0.0089  0.0868
    1DPPC   GL2  112  26.842   9.702   5.655  0.2882 -0.2147 -0.0901
    1DPPC   C1A  113  26.688   9.413   5.329 -0.0345  0.2778 -0.2013
    1DPPC   C2A  114  26.803   9.383   4.911  0.0722 -0.0070  0.3250
    1DPPC   C3A  115  26.973   9.108   4.608 -0.2950  0.1548 -0.0597
    1DPPC   C4A  116  27.056   9.235   4.167  0.1959 -0.0770  0.1030
    1DPPC   C1B  117  26.401   9.598   5.684  0.0836 -0.0284 -0.1309
    1DPPC   C2B  118  26.073   9.511   5.389 -0.0773 -0.0625  0.0211
    1DPPC   C3B  119  25.861   9.615   5.067 -0.1610 -0.1555 -0.0938
    1DPPC   C4B  120  26.001   9.689   4.698 -0.0878 -0.0279  0.0130
    1DPPC   NC3  121  16.396  15.228   7.305  0.1215  0.2608  0.1874
    1DPPC   PO4  122  16.192  15.048   6.912  0.2458 -0.2104  0.0176
    1DPPC   GL1  123  16.037  15.058   6.468  0.1209 -0.3817 -0.2289
    1DPPC   GL2  124  16.275  14.938   6.204 -0.1041  0.1896 -0.2988
    1DPPC   C1A  125  15.832  15.030   6.025 -0.3958 -0.1749 -0.2301
    1DPPC   C2A  126  15.761  14.987   5.565 -0.1022 -0.0427 -0.3343
    1DPPC   C3A  127  15.833  14.823   5.110  0.2869  0.1578  0.1099
    1DPPC   C4A  128  15.742  14.776   4.668 -0.0957 -0.0597 -0.1166
    1DPPC   C1B  129  16.302  14.761   5.866  0.1069 -0.0741 -0.0901
    1DPPC   C2B  130  16.245  14.796   5.488  0.0100 -0.1485  0.0538
    1DPPC   C3B  131  16.348  14.626   5.160  0.0014  0.1402 -0.1273
    1DPPC   C4B  132  16.245  14.535   4.761  0.3081  0.2231 -0.0118
    1DPPC   NC3  133  13.617  14.376   6.931 -0.1170 -0.1042  0.0158
    1DPPC   PO4  134  13.979  14.648   6.984 -0.0467  0.0215  0.1127
    1DPPC   GL1  135  13.971  14.749   6.582  0.1294  0.1387  0.0430
    1DPPC   GL2  136  13.940  15.057   6.426  0.2672  0.0356 -0.2771
    1DPPC   C1A  137  13.946  14.524   6.315  0.1919  0.4318  0.0136
    1DPPC   C2A  138  13.865  14.440   5.900  0.3068 -0.1041 -0.0010
    1DPPC   C3A  139  13.797  14.631   5.392 -0.0515 -0.1365 -0.1628
    1DPPC   C4A  140  14.044  14.618   5.102 -0.0863  0.1633 -0.0505
    1DPPC   C1B  141  13.861  15.308   5.990 -0.3872  0.0228  0.0041
    1DPPC   C2B  142  13.811  15.465   5.580  0.3348 -0.2731 -0.0011
    1DPPC   C3B  143  13.764  15.526   5.213  0.0240 -0.0224 -0.0946
    1DPPC   C4B  144  13.758  15.534   4.734  0.0805  0.0718 -0.1772
    1DPPC   NC3  145  13.389  20.930   7.076 -0.1746 -0.1201  0.1402
    1DPPC   PO4  146  12.899  21.046   7.044  0.2119 -0.0330  0.4043
    1DPPC   GL1  147  12.970  21.170   6.633 -0.0611 -0.0497  0.0544
    1DPPC   GL2  148  13.236  21.000   6.505  0.0714  0.0976 -0.1189
    1DPPC   C1A  149  12.918  21.297   6.198 -0.1804  0.0690  0.0387
    1DPPC   C2A  150  12.977  21.361   5.743  0.0739 -0.0961 -0.0545
    1DPPC   C3A  151  13.067  21.272   5.236 -0.0732  0.2432  0.2448
    1DPPC   C4A  152  13.264  21.221   4.833 -0.0279 -0.0872  0.1416
    1DPPC   C1B  153  13.331  21.026   6.030  0.0185 -0.0034 -0.1482
    1DPPC   C2B  154  13.447  21.027   5.681  0.1678  0.1400  0.0504
    1DPPC   C3B  155  13.447  21.010   5.238  0.2731  0.2490 -0.0087
    1DPPC   C4B  156  13.767  21.047   4.838  0.1945  0.1154 -0.2676
    1DPPC   NC3  157  13.550  11.384   7.645  0.2997 -0.0048 -0.0042
    1DPPC   PO4  158  13.184  11.352   7.348  0.0932  0.3132  0.0279
    1DPPC   GL1  159  12.844  11.137   7.122 -0.1377  0.2322 -0.0963
    1DPPC   GL2  160  12.613  11.236   7.330  0.1404 -0.4294 -0.2422
    1DPPC   C1A  161  12.829  10.895   6.722  0.1026 -0.0719 -0.1121
    1DPPC   C2A  162  12.978  10.689   6.390  0.0459  0.1968 -0.1005
    1DPPC   C3A  163  13.208  10.452   6.149 -0.0477  0.2065 -0.1899
    1DPPC   C4A  164  13.038  10.338   5.726  0.0536 -0.3106 -0.1313
    1DPPC   C1B  165  12.488  11.474   6.885  0.0601 -0.0701  0.0993
    1DPPC   C2B  166  12.411  11.387   6.508  0.1460  0.0277 -0.3430
    1DPPC   C3B  167  12.313  11.284   6.127 -0.0929  0.1609  0.2723
    1DPPC   C4B  168  12.521  11.054   5.879 -0.3172  0.1161  0.1498
    1DPPC   NC3  169  14.203  13.867   7.171  0.1933 -0.4961 -0.0722
    1DPPC   PO4  170  13.851  13.864   7.018 -0.2216 -0.0598 -0.0784
    1DPPC   GL1  171  13.673  13.974   6.567  0.0519 -0.0780  0.1973
    1DPPC   GL2  172  13.427  14.020   6.510 -0.0097  0.2284 -0.0183
    1DPPC   C1A  173  13.739  14.020   6.124  0.1340 -0.2958  0.4164
    1DPPC   C2A  174  13.783  13.999   5.628 -0.0480  0.1924  0.2486
    1DPPC   C3A  175  13.770  14.141   5.274  0.2041  0.1064 -0.0661
    1DPPC   C4A  176  13.683  14.369   4.860  0.0587 -0.2365  0.1225
    1DPPC   C1B  177  13.271  13.916   6.131  0.3029  0.0498  0.2358
    1DPPC   C2B  178  13.292  13.884   5.707  0.0260  0.2590  0.1031
    1DPPC   C3B  179  13.294  13.930   5.310  0.0205  0.1362  0.2456
    1DPPC   C4B  180  12.905  13.930   5.095 -0.3799 -0.1514  0.0553
    1DPPC   NC3  181  12.924  17.207   7.050  0.3279  0.0873 -0.2301
    1DPPC   PO4  182  13.415  17.161   7.061  0.0207  0.3093 -0.1537
    1DPPC   GL1  183  13.589  17.451   6.772 -0.0957 -0.1663 -0.1605
    1DPPC   GL2  184  13.766  17.764   6.639  0.0303  0.1178  0.0216
    1DPPC   C1A  185  13.513  17.493   6.335 -0.2210  0.0746 -0.2525
    1DPPC   C2A  186  13.664  17.450   5.867  0.2177  0.3058  0.0592
    1DPPC   C3A  187  13.719  17.404   5.407  0.2503 -0.3232  0.0465
    1DPPC   C4A  188  13.648  17.201   4.979 -0.0157  0.0210  0.0260
    1DPPC   C1B  189  13.930  17.754   6.197 -0.3334 -0.2349  0.1574
    1DPPC   C2B  190  14.017  17.841   5.769  0.1840 -0.1673 -0.1879
    1DPPC   C3B  191  14.049  17.806   5.354  0.1432 -0.1924 -0.2423
    1DPPC   C4B  192  14.028  18.090   5.086 -0.0501  0.0567  0.2974
    1DPPC   NC3  193  10.929  19.329   6.991 -0.0487 -0.2939  0.1841
    1DPPC   PO4  194  11.338  19.143   6.874  0.0570 -0.0622 -0.0319
    1DPPC   GL1  195  11.597  19.185   6.467 -0.1062  0.2226 -0.0696
    1DPPC   GL2  196  11.521  19.567   6.306  0.0099  0.0776  0.2999
    1DPPC   C1A  197  11.684  18.952   6.154 -0.1239 -0.2474  0.1073
    1DPPC   C2A  198  11.742  19.034   5.733  0.1304  0.2526 -0.3747
    1DPPC   C3A  199  11.584  18.999   5.332 -0.0168  0.0341 -0.0428
    1DPPC   C4A  200  11.566  19.006   4.851 -0.0687  0.1373  0.4547
    1DPPC   C1B  201  11.686  19.488   5.936 -0.1596 -0.2610  0.2806
    1DPPC   C2B  202  11.654  19.455   5.467  0.2305 -0.5110  0.3093
    1DPPC   C3B  203  11.673  19.442   5.039 -0.1231 -0.1677 -0.1053
    1DPPC   C4B  204  11.747  19.489   4.599 -0.0406 -0.0396 -0.0816
    1DPPC   NC3  205  29.706  13.011   5.879  0.2315 -0.1111 -0.0279
    1DPPC   PO4  206  29.460  13.277   5.518 -0.1180  0.3789  0.0936
    1DPPC   GL1  207  29.396  12.900   5.252 -0.1784  0.0815  0.0219
    1DPPC   GL2  208  29.063  12.751   5.365 -0.0644  0.1292  0.0917
    1DPPC   C1A  209  29.413  12.609   4.920 -0.1583 -0.0483 -0.0726
    1DPPC   C2A  210  29.538  12.301   4.531 -0.1566 -0.1822 -0.0526
    1DPPC   C3A  211  29.920  12.269   4.279 -0.0339  0.0503  0.1626
    1DPPC   C4A  212  30.206  12.583   4.106 -0.0688 -0.0201 -0.1180
    1DPPC   C1B  213  28.945  12.743   4.887 -0.1210  0.0678 -0.0254
    1DPPC   C2B  214  28.830  12.721   4.465  0.1573  0.0145  0.0890
    1DPPC   C3B  215  28.379  12.591   4.272  0.0749 -0.0202 -0.0362
    1DPPC   C4B  216  27.964  12.790   4.132 -0.1878  0.2108  0.0258
    1DPPC   NC3  217   7.321  16.512   7.102  0.0309 -0.3967 -0.2799
    1DPPC   PO4  218   7.468  16.772   6.737  0.1706 -0.2727  0.1698
    1DPPC   GL1  219   7.832  16.674   6.496 -0.1385 -0.2922 -0.0188
    1DPPC   GL2  220   8.127  16.921   6.445 -0.1060 -0.0105 -0.0922
    1DPPC   C1A  221   8.135  16.441   6.372  0.1090  0.1482 -0.0900
    1DPPC   C2A  222   8.507  16.294   6.158 -0.0464 -0.0602  0.1797
    1DPPC   C3A  223   8.436  16.247   5.730 -0.1936  0.2922 -0.1378
    1DPPC   C4A  224   8.434  16.166   5.299  0.2360 -0.0717 -0.1026
    1DPPC   C1B  225   7.891  16.921   6.021 -0.3034  0.0964  0.0267
    1DPPC   C2B  226   7.901  17.183   5.632 -0.3430  0.2893  0.2465
    1DPPC   C3B  227   7.903  17.648   5.490  0.0719 -0.1308 -0.1257
    1DPPC   C4B  228   7.761  18.093   5.258  0.0162 -0.0952  0.0827
    1DPPC   NC3  229  21.260  17.012   6.286  0.1124  0.3834 -0.1695
    1DPPC   PO4  230  21.614  17.035   6.323  0.1223 -0.0586 -0.0843
    1DPPC   GL1  231  21.615  17.081   5.910  0.2330 -0.1962 -0.1416
    1DPPC   GL2  232  21.238  17.057   5.765 -0.1281 -0.0746  0.0529
    1DPPC   C1A  233  21.642  16.953   5.485  0.1130  0.0036  0.4912
    1DPPC   C2A  234  21.636  16.941   5.048  0.1360 -0.0605 -0.1738
    1DPPC   C3A  235  21.462  17.069   4.650 -0.1135 -0.0069 -0.0032
    1DPPC   C4A  236  21.243  17.347   4.393 -0.0581 -0.1427 -0.0216
    1DPPC   C1B  237  21.163  16.946   5.291  0.1270 -0.2488 -0.0150
    1DPPC   C2B  238  21.005  16.999   4.871 -0.0722  0.2593 -0.2890
    1DPPC   C3B  239  20.745  16.750   4.542  0.0869 -0.4850 -0.2263
    1DPPC   C4B  240  20.842  16.343   4.452  0.0438 -0.0271  0.1618
    1DPPC   NC3  241   9.106  12.124   7.340  0.2136 -0.0628 -0.0545
    1DPPC   PO4  242   9.393  12.490   7.311  0.2429  0.0314  0.2653
    1DPPC   GL1  243   9.326  12.345   6.916 -0.0131  0.3019 -0.0597
    1DPPC   GL2  244   9.325  11.978   6.932  0.0600 -0.1065 -0.0825
    1DPPC   C1A  245   9.389  12.211   6.483 -0.3906  0.0551  0.2948
    1DPPC   C2A  246   9.531  11.975   6.175  0.1998  0.0297 -0.0424
    1DPPC   C3A  247   9.692  11.853   5.790  0.1334 -0.1474  0.2431
    1DPPC   C4A  248  10.000  11.702   5.429  0.0598  0.1910 -0.1919
    1DPPC   C1B  249   9.176  11.774   6.542 -0.1414 -0.0854 -0.2802
    1DPPC   C2B  250   8.780  11.542   6.275 -0.1175  0.0029  0.0557
    1DPPC   C3B  251   8.717  11.167   6.034 -0.1830  0.2664  0.2303
    1DPPC   C4B  252   8.690  11.025   5.596 -0.3256 -0.2057  0.0537
    1DPPC   NC3  253  10.169  15.431   7.436 -0.3872 -0.3331  0.2670
    1DPPC   PO4  254  10.112  15.546   7.067 -0.3126 -0.0470 -0.0616
    1DPPC   GL1  255  10.129  15.434   6.642 -0.1244  0.1594  0.3375
    1DPPC   GL2  256  10.366  15.391   6.629 -0.1609  0.0625 -0.0503
    1DPPC   C1A  257   9.890  15.450   6.243  0.1590 -0.0772 -0.3199
    1DPPC   C2A  258   9.777  15.427   5.796 -0.2872 -0.2035 -0.1071
    1DPPC   C3A  259   9.745  15.422   5.292 -0.0791  0.0012 -0.0467
    1DPPC   C4A  260  10.033  15.529   4.880 -0.3133 -0.0146  0.2943
    1DPPC   C1B  261  10.318  15.196   6.208 -0.0538  0.0209  0.2152
    1DPPC   C2B  262  10.371  15.167   5.751  0.2911  0.0974 -0.3048
    1DPPC   C3B  263  10.235  15.252   5.330 -0.0704  0.2682  0.2009
    1DPPC   C4B  264  10.006  15.067   5.008  0.0290  0.1566 -0.0827
    1DPPC   NC3  265  17.886  12.471   7.005  0.0192 -0.2194 -0.0065
    1DPPC   PO4  266  17.513  12.491   6.605 -0.4445 -0.3143  0.0330
    1DPPC   GL1  267  17.651  12.473   6.148  0.1448 -0.2676  0.1283
    1DPPC   GL2  268  17.951  12.560   6.110  0.0696 -0.0852 -0.2442
    1DPPC   C1A  269  17.626  12.409   5.630 -0.1445 -0.0470  0.3629
    1DPPC   C2A  270  17.416  12.327   5.197 -0.0210 -0.0172  0.0063
    1DPPC   C3A  271  17.633  12.417   4.801 -0.0970  0.1280 -0.2392
    1DPPC   C4A  272  17.554  12.312   4.428  0.1642 -0.1619 -0.4573
    1DPPC   C1B  273  18.080  12.275   5.837  0.1987 -0.2030  0.1741
    1DPPC   C2B  274  18.051  12.163   5.451  0.2829 -0.1789 -0.2561
    1DPPC   C3B  275  18.014  12.150   5.098 -0.0788  0.0014  0.2643
    1DPPC   C4B  276  18.133  12.261   4.644 -0.1998 -0.0519 -0.0064
    1DPPC   NC3  277  17.442  22.500   6.768  0.0578 -0.2351  0.0155
    1DPPC   PO4  278  17.764  22.291   6.593  0.1735 -0.2145 -0.0771
    1DPPC   GL1  279  17.980  22.390   6.282  0.1303 -0.0733 -0.4963
    1DPPC   GL2  280  17.841  22.232   5.997 -0.2766  0.0595 -0.0450
    1DPPC   C1A  281  18.360  22.359   5.991  0.0737 -0.1140 -0.1707
    1DPPC   C2A  282  18.366  22.389   5.597  0.1276 -0.2406  0.2087
    1DPPC   C3A  283  18.433  22.372   5.092  0.4493  0.0217 -0.1630
    1DPPC   C4A  284  18.404  22.233   4.697  0.1692  0.1330  0.3388
    1DPPC   C1B  285  17.828  22.132   5.554  0.0136 -0.0613 -0.0725
    1DPPC   C2B  286  18.005  22.004   5.192  0.1489  0.0608 -0.1079
    1DPPC   C3B  287  18.011  21.948   4.693  0.0543 -0.2564  0.2588
    1DPPC   C4B  288  17.877  21.973   4.275 -0.1961  0.3633  0.0138
    1DPPC   NC3  289   3.892   7.865   6.970 -0.1305  0.1835 -0.1742
    1DPPC   PO4  290   4.057   7.518   6.857 -0.0035 -0.0445 -0.2379
    1DPPC   GL1  291   4.214   7.531   6.413  0.0012  0.4973 -0.1364
    1DPPC   GL2  292   4.583   7.523   6.467 -0.1164  0.3148  0.0119
    1DPPC   C1A  293   4.234   7.419   5.972  0.2218 -0.1459  0.0470
    1DPPC   C2A  294   4.145   7.260   5.589  0.2491  0.0232  0.0413
    1DPPC   C3A  295   3.887   7.437   5.216  0.1480  0.1596  0.0825
    1DPPC   C4A  296   3.668   7.788   5.249  0.0542 -0.1789 -0.2888
    1DPPC   C1B  297   4.535   7.769   6.126  0.2967 -0.2987 -0.0321
    1DPPC   C2B  298   4.672   8.053   5.853  0.3633  0.1912  0.0529
    1DPPC   C3B  299   4.429   8.289   5.542  0.1073  0.0366  0.2014
    1DPPC   C4B  300   4.268   8.754   5.228  0.0788  0.0356  0.0707
    1DPPC   NC3  301  12.865  18.782   6.957 -0.1726  0.0878 -0.2636
    1DPPC   PO4  302  12.602  18.486   6.690 -0.1418  0.0046 -0.2434
    1DPPC   GL1  303  12.813  18.687   6.411  0.3772  0.3326  0.0302
    1DPPC   GL2  304  13.002  18.936   6.404  0.0017  0.0923  0.1191
    1DPPC   C1A  305  12.843  18.731   6.016  0.0789 -0.0404  0.1935
    1DPPC   C2A  306  12.960  18.743   5.652  0.2455  0.3204  0.0253
    1DPPC   C3A  307  12.964  18.704   5.180 -0.0200 -0.1138 -0.1804
    1DPPC   C4A  308  12.990  18.810   4.775  0.2097  0.0730 -0.0523
    1DPPC   C1B  309  13.051  19.190   6.021 -0.2254 -0.2749  0.1370
    1DPPC   C2B  310  13.124  19.192   5.554 -0.0974  0.0264 -0.1600
    1DPPC   C3B  311  13.205  19.131   5.125 -0.1150  0.3525 -0.1787
    1DPPC   C4B  312  13.002  19.294   4.801  0.0813  0.0567  0.0558
    1DPPC   NC3  313   4.214  27.078   6.883 -0.1619  0.2688 -0.1210
    1DPPC   PO4  314   4.476  26.805   6.826 -0.3173  0.4315  0.1710
    1DPPC   GL1  315   4.236  26.955   6.401  0.2753  0.2454 -0.2684
    1DPPC   GL2  316   3.978  26.777   6.085  0.3219 -0.2133 -0.1141
    1DPPC   C1A  317   4.264  27.202   6.009  0.1322  0.2720  0.0387
    1DPPC   C2A  318   4.254  27.404   5.693  0.0375 -0.1556  0.0608
    1DPPC   C3A  319   4.049  27.534   5.298 -0.0112  0.1490 -0.1373
    1DPPC   C4A  320   4.035  27.567   4.879  0.0850 -0.1502  0.2517
    1DPPC   C1B  321   3.892  27.079   5.658 -0.0414  0.1503  0.0171
    1DPPC   C2B  322   4.184  27.056   5.348 -0.1030 -0.2688  0.1800
    1DPPC   C3B  323   4.486  26.998   5.151 -0.1483  0.0891  0.0052
    1DPPC   C4B  324   4.700  26.792   4.827  0.1611 -0.2658  0.0275
    1DPPC   NC3  325  14.464  21.818   6.845  0.0867  0.1335 -0.3078
    1DPPC   PO4  326  14.402  21.333   6.905 -0.1045 -0.2613  0.0457
    1DPPC   GL1  327  14.294  21.359   6.492  0.1653  0.3068  0.0466
    1DPPC   GL2  328  14.281  21.026   6.446  0.0838 -0.0906 -0.1257
    1DPPC   C1A  329  14.272  21.388   6.079  0.0985  0.2597  0.1230
    1DPPC   C2A  330  14.312  21.301   5.576  0.1496 -0.0440 -0.1110
    1DPPC   C3A  331  14.310  21.048   5.406 -0.0283  0.1792  0.0653
    1DPPC   C4A  332  14.283  20.874   5.033 -0.0789  0.3666 -0.0090
    1DPPC   C1B  333  14.169  20.926   6.063 -0.1936 -0.1380 -0.0857
    1DPPC   C2B  334  13.878  20.788   5.655 -0.0395  0.1068 -0.0087
    1DPPC   C3B  335  13.884  20.768   5.269  0.2279  0.0252  0.0066
    1DPPC   C4B  336  13.851  20.534   4.937 -0.0162  0.1042  0.0859
    1DPPC   NC3  337  13.271  16.122   7.264 -0.0855  0.1253  0.1929
    1DPPC   PO4  338  13.198  15.820   6.987 -0.0844 -0.0919  0.0540
    1DPPC   GL1  339  13.181  15.872   6.548  0.0728  0.1157 -0.2869
    1DPPC   GL2  340  13.016  15.655   6.510 -0.0710 -0.1493 -0.2278
    1DPPC   C1A  341  13.220  15.908   6.130 -0.0809  0.1407 -0.0675
    1DPPC   C2A  342  13.176  15.931   5.689  0.0594 -0.2036  0.2888
    1DPPC   C3A  343  13.123  15.895   5.290 -0.1790 -0.1571  0.0859
    1DPPC   C4A  344  12.934  15.965   4.894  0.1998  0.0005  0.1779
    1DPPC   C1B  345  12.755  15.273   6.210 -0.3410 -0.0129  0.0001
    1DPPC   C2B  346  12.731  15.196   5.797  0.0329  0.2245 -0.0633
    1DPPC   C3B  347  12.700  15.263   5.400 -0.2555 -0.3817 -0.0751
    1DPPC   C4B  348  12.768  15.457   4.881  0.2574 -0.1843  0.0337
    1DPPC   NC3  349  28.224  19.696   5.805 -0.2051 -0.0816 -0.2232
    1DPPC   PO4  350  27.737  20.038   5.851  0.1033  0.1455  0.0724
    1DPPC   GL1  351  27.799  20.008   5.421 -0.0948  0.0073  0.0096
    1DPPC   GL2  352  28.000  20.198   5.216 -0.0352 -0.1159  0.1774
    1DPPC   C1A  353  27.472  19.902   5.223 -0.2005  0.0668 -0.1637
    1DPPC   C2A  354  27.322  19.647   4.853 -0.1279  0.2020 -0.2700
    1DPPC   C3A  355  27.374  19.338   4.584 -0.2463 -0.3031 -0.0867
    1DPPC   C4A  356  27.307  19.365   4.184 -0.1319  0.1589 -0.0882
    1DPPC   C1B  357  27.963  20.398   4.739  0.1259 -0.2192  0.1929
    1DPPC   C2B  358  28.193  20.600   4.515 -0.0140 -0.1996 -0.2178
    1DPPC   C3B  359  28.497  20.845   4.368 -0.1276 -0.0554 -0.3403
    1DPPC   C4B  360  28.921  20.727   4.145 -0.0985  0.3607  0.0589
    1DPPC   NC3  361  10.830  16.013   6.952  0.1969  0.0563 -0.0163
    1DPPC   PO4  362  11.263  16.098   7.127  0.2347 -0.0565 -0.1902
    1DPPC   GL1  363  11.363  15.952   6.695 -0.0980 -0.0883 -0.4211
    1DPPC   GL2  364  11.657  16.006   6.748 -0.0419  0.1496 -0.2389
    1DPPC   C1A  365  11.246  15.716   6.356 -0.1242  0.0674 -0.0137
    1DPPC   C2A  366  11.288  15.686   5.849 -0.1805 -0.1604  0.3524
    1DPPC   C3A  367  11.189  15.520   5.388 -0.0501 -0.0753  0.0411
    1DPPC   C4A  368  11.009  15.451   5.047 -0.4166  0.0698  0.0586
    1DPPC   C1B  369  11.748  15.954   6.320  0.1077 -0.5256  0.3151
    1DPPC   C2B  370  11.796  15.853   5.870  0.0290  0.0996 -0.0815
    1DPPC   C3B  371  11.582  15.844   5.392 -0.0389 -0.0561  0.0803
    1DPPC   C4B  372  11.424  15.787   4.958 -0.1487  0.0627  0.1728
    1DPPC   NC3  373  15.189  12.695   7.602  0.0679  0.1719  0.3254
    1DPPC   PO4  374  15.007  12.802   7.255 -0.1518 -0.3164 -0.4338
    1DPPC   GL1  375  14.815  12.877   6.838  0.0215  0.0311  0.0846
    1DPPC   GL2  376  14.469  12.796   6.870 -0.1451  0.2066 -0.0857
    1DPPC   C1A  377  15.050  12.877   6.394  0.0367  0.2928 -0.0531
    1DPPC   C2A  378  14.942  12.692   5.955 -0.0545  0.0718 -0.1254
    1DPPC   C3A  379  14.925  12.755   5.519 -0.0217  0.3610  0.0955
    1DPPC   C4A  380  14.706  12.832   5.187 -0.2039  0.0628 -0.0816
    1DPPC   C1B  381  14.468  12.845   6.371 -0.3642  0.0783 -0.2350
    1DPPC   C2B  382  14.451  12.798   5.951  0.1206  0.0529  0.0087
    1DPPC   C3B  383  14.302  12.796   5.494  0.0660  0.2259  0.0139
    1DPPC   C4B  384  14.084  12.848   4.993  0.0249  0.0376  0.0962
    1DPPC   NC3  385  20.006  16.946   6.956 -0.0432 -0.1888  0.3545
    1DPPC   PO4  386  20.000  16.995   6.421 -0.1469 -0.0977 -0.1978
    1DPPC   GL1  387  20.213  16.718   6.056 -0.0712 -0.2983 -0.2128
    1DPPC   GL2  388  20.157  16.381   6.136  0.2291  0.1609  0.0599
    1DPPC   C1A  389  20.267  16.505   5.564 -0.1284  0.0417 -0.0683
    1DPPC   C2A  390  20.236  16.485   5.133  0.0570 -0.0722  0.1407
    1DPPC   C3A  391  20.317  16.564   4.724  0.3181 -0.2318 -0.2536
    1DPPC   C4A  392  20.349  16.362   4.385 -0.0762 -0.0642 -0.1338
    1DPPC   C1B  393  19.956  16.224   5.833  0.1363  0.2790 -0.1851
    1DPPC   C2B  394  19.925  16.135   5.390 -0.1640 -0.0032  0.2617
    1DPPC   C3B  395  19.959  16.063   5.046 -0.4525 -0.1523 -0.2293
    1DPPC   C4B  396  19.881  16.211   4.587  0.2731 -0.2326  0.2725
    1DPPC   NC3  397  16.104  16.165   6.875 -0.0102  0.2403 -0.0534
    1DPPC   PO4  398  15.772  15.903   6.905 -0.0357  0.1920 -0.0110
    1DPPC   GL1  399  15.697  16.124   6.418  0.2726 -0.1639  0.0696
    1DPPC   GL2  400  16.011  16.214   6.364 -0.2756 -0.0477 -0.3155
    1DPPC   C1A  401  15.609  16.087   6.092  0.4155 -0.2777 -0.1096
    1DPPC   C2A  402  15.621  16.100   5.604  0.3148  0.0362  0.1202
    1DPPC   C3A  403  15.563  16.047   5.211 -0.0516 -0.1002  0.0672
    1DPPC   C4A  404  15.706  16.285   4.949 -0.1107 -0.1846 -0.1611
    1DPPC   C1B  405  16.113  16.245   5.895  0.1066 -0.2193 -0.2303
    1DPPC   C2B  406  16.053  16.257   5.358 -0.1208 -0.0126 -0.1201
    1DPPC   C3B  407  16.206  16.208   4.994  0.0523  0.1160 -0.0468
    1DPPC   C4B  408  16.402  16.300   4.544 -0.0153 -0.0672 -0.1092
    1DPPC   NC3  409  13.205  16.312   6.838  0.0414 -0.1035 -0.1904
    1DPPC   PO4  410  13.450  16.621   6.733 -0.0965 -0.0934 -0.0708
    1DPPC   GL1  411  13.458  16.316   6.369 -0.0622 -0.1774  0.3913
    1DPPC   GL2  412  13.756  16.222   6.289  0.2474 -0.0183 -0.0503
    1DPPC   C1A  413  13.346  16.396   5.983  0.2386 -0.0313  0.2676
    1DPPC   C2A  414  13.383  16.322   5.488 -0.1871 -0.0913 -0.3536
    1DPPC   C3A  415  13.351  16.341   5.062  0.0484 -0.0006 -0.0893
    1DPPC   C4A  416  13.134  16.295   4.619  0.0630 -0.2787  0.1992
    1DPPC   C1B  417  13.897  16.425   5.969  0.0889  0.0456  0.0812
    1DPPC   C2B  418  13.911  16.394   5.527  0.1869  0.0660  0.0586
    1DPPC   C3B  419  14.147  16.341   5.135 -0.1857 -0.0878  0.3862
    1DPPC   C4B  420  14.091  16.407   4.645 -0.0359  0.1394  0.0389
    1DPPC   NC3  421  11.716  16.073   7.246  0.0474  0.0062  0.3364
    1DPPC   PO4  422  11.950  16.450   6.964 -0.0097  0.1229  0.1886
    1DPPC   GL1  423  11.869  16.462   6.548  0.2151  0.3100  0.2181
    1DPPC   GL2  424  11.504  16.377   6.454  0.1424 -0.1668  0.5071
    1DPPC   C1A  425  11.877  16.387   6.086 -0.2777  0.3792  0.0093
    1DPPC   C2A  426  11.864  16.358   5.665 -0.0325 -0.0817 -0.0976
    1DPPC   C3A  427  11.817  16.380   5.346 -0.0224 -0.0751 -0.0218
    1DPPC   C4A  428  11.590  16.291   4.985  0.1449 -0.0075  0.0525
    1DPPC   C1B  429  11.376  16.141   6.097  0.1987 -0.0560 -0.0718
    1DPPC   C2B  430  11.383  16.167   5.704  0.0074  0.0818 -0.1517
    1DPPC   C3B  431  11.245  16.228   5.311  0.1288  0.1558 -0.0338
    1DPPC   C4B  432  11.087  16.296   4.834  0.0960 -0.0798 -0.2975
    1DPPC   NC3  433   8.690  15.575   6.693 -0.0233 -0.1044  0.0200
    1DPPC   PO4  434   8.211  15.652   6.766  0.2112  0.2779  0.0127
    1DPPC   GL1  435   8.172  15.649   6.375 -0.1833  0.1542  0.2663
    1DPPC   GL2  436   8.493  15.576   6.236  0.0667 -0.2598 -0.0365
    1DPPC   C1A  437   8.041  16.023   6.101 -0.1556 -0.0397 -0.1024
    1DPPC   C2A  438   7.844  16.230   5.786 -0.1247 -0.2354 -0.2886
    1DPPC   C3A  439   7.567  16.539   5.570 -0.0353  0.1406 -0.1209
    1DPPC   C4A  440   7.178  16.491   5.364  0.1023 -0.3663  0.0881
    1DPPC   C1B  441   8.366  15.724   5.888 -0.0654  0.0086  0.2045
    1DPPC   C2B  442   8.128  15.866   5.581 -0.1086  0.3263 -0.0053
    1DPPC   C3B  443   7.902  16.123   5.301  0.2291  0.0737  0.5202
    1DPPC   C4B  444   7.653  16.435   4.987 -0.1257 -0.3026 -0.0645
    1DPPC   NC3  445  15.440  19.256   6.805 -0.0891 -0.0960 -0.2355
    1DPPC   PO4  446  15.566  19.682   6.889 -0.2029  0.0438 -0.2375
    1DPPC   GL1  447  15.588  19.589   6.428  0.1177  0.2239 -0.0565
    1DPPC   GL2  448  15.571  19.325   6.383  0.3404 -0.0253 -0.2199
    1DPPC   C1A  449  15.706  19.662   6.005 -0.2125  0.0802 -0.0395
    1DPPC   C2A  450  15.841  19.478   5.713 -0.4122 -0.0326 -0.1656
    1DPPC   C3A  451  15.912  19.444   5.288  0.3499 -0.0406 -0.1812
    1DPPC   C4A  452  16.056  19.564   4.789 -0.0643 -0.1046 -0.2740
    1DPPC   C1B  453  15.636  19.101   6.026 -0.1017  0.1821  0.0810
    1DPPC   C2B  454  15.572  19.022   5.612  0.1611  0.0844 -0.0925
    1DPPC   C3B  455  15.715  18.946   5.268 -0.0507  0.3084  0.0454
    1DPPC   C4B  456  15.791  18.810   4.897  0.0928 -0.0630 -0.2048
    1DPPC   NC3  457  20.262  13.158   6.836 -0.0130  0.2332  0.0280
    1DPPC   PO4  458  19.902  13.331   6.554 -0.0687 -0.0026 -0.0212
    1DPPC   GL1  459  20.128  13.105   6.251 -0.0346 -0.3333 -0.0445
    1DPPC   GL2  460  20.139  12.755   6.166  0.2352  0.1117  0.3642
    1DPPC   C1A  461  20.324  13.183   5.868  0.3637  0.2980  0.0314
    1DPPC   C2A  462  20.376  13.240   5.511  0.3161 -0.0589  0.3239
    1DPPC   C3A  463  20.491  13.241   5.021 -0.1790 -0.0583 -0.1440
    1DPPC   C4A  464  20.470  13.200   4.573 -0.0907  0.1376  0.1048
    1DPPC   C1B  465  19.989  12.893   5.762 -0.2887  0.0146 -0.2560
    1DPPC   C2B  466  20.138  12.797   5.286  0.1832 -0.0860  0.0864
    1DPPC   C3B  467  20.244  12.702   4.938  0.1519 -0.1243 -0.5801
    1DPPC   C4B  468  20.327  12.693   4.460 -0.0817 -0.2624  0.2407
    1DPPC   NC3  469  16.953  14.336   6.621 -0.3438 -0.1199 -0.0329
    1DPPC   PO4  470  16.962  13.900   6.746  0.2443 -0.4483 -0.0079
    1DPPC   GL1  471  16.907  13.941   6.263 -0.0271  0.1286 -0.0558
    1DPPC   GL2  472  17.123  14.215   6.166 -0.1691  0.2897  0.2907
    1DPPC   C1A  473  16.960  13.777   5.874  0.2136 -0.1987  0.0963
    1DPPC   C2A  474  17.000  13.689   5.445  0.0138  0.1839  0.2170
    1DPPC   C3A  475  16.934  13.529   5.027  0.1150  0.2041 -0.1279
    1DPPC   C4A  476  16.822  13.804   4.622 -0.0410  0.0187  0.1421
    1DPPC   C1B  477  17.414  14.122   5.909  0.1143 -0.0789 -0.1488
    1DPPC   C2B  478  17.333  14.049   5.535  0.0518 -0.0924  0.2259
    1DPPC   C3B  479  17.400  13.823   5.193  0.0175  0.0952  0.2531
    1DPPC   C4B  480  17.325  13.775   4.814  0.0862  0.3550 -0.0616
    1DPPC   NC3  481  19.348  21.853   6.640  0.2521  0.1203 -0.0064
    1DPPC   PO4  482  19.033  22.202   6.668  0.5316  0.2068  0.2258
    1DPPC   GL1  483  19.162  22.146   6.256  0.0136  0.2560 -0.3886
    1DPPC   GL2  484  18.856  22.071   6.045  0.1861 -0.1700 -0.0345
    1DPPC   C1A  485  19.308  22.288   5.885  0.0328  0.0146  0.0758
    1DPPC   C2A  486  19.207  22.495   5.541  0.0438  0.1266 -0.0377
    1DPPC   C3A  487  18.910  22.608   5.254  0.2260  0.0270 -0.6055
    1DPPC   C4A  488  18.648  22.864   5.077  0.0822 -0.0585 -0.1155
    1DPPC   C1B  489  18.814  22.042   5.698 -0.1271 -0.1162  0.1322
    1DPPC   C2B  490  18.809  22.149   5.348  0.1911 -0.0048 -0.2212
    1DPPC   C3B  491  18.913  22.280   4.912 -0.5234  0.2840  0.1991
    1DPPC   C4B  492  19.187  22.347   4.536  0.0737 -0.0498 -0.0773
    1DPPC   NC3  493  23.608  27.386   6.919  0.0827  0.2313  0.1004
    1DPPC   PO4  494  23.369  27.607   6.711 -0.1815  0.0481  0.4821
    1DPPC   GL1  495  23.550  27.864   6.423 -0.0489  0.0565  0.2633
    1DPPC   GL2  496  23.319  27.795   6.216  0.1539 -0.1886  0.1233
    1DPPC   C1A  497  23.830  27.885   6.059 -0.2313  0.2748  0.0245
    1DPPC   C2A  498  24.164  27.795   5.711  0.3548 -0.1627  0.1210
    1DPPC   C3A  499  23.897  27.752   5.307  0.1051 -0.2264 -0.1259
    1DPPC   C4A  500  23.765  27.551   5.025 -0.0727 -0.1623 -0.1019
    1DPPC   C1B  501  23.411  27.738   5.764 -0.0809 -0.0810  0.1303
    1DPPC   C2B  502  23.399  27.817   5.385  0.1367 -0.0883 -0.1229
    1DPPC   C3B  503  23.604  28.235   5.251 -0.2070 -0.0170 -0.1125
    1DPPC   C4B  504  23.326  28.515   5.085 -0.0697 -0.3657 -0.2821
    1DPPC   NC3  505  15.331  16.192   6.784 -0.0381 -0.0592  0.0550
    1DPPC   PO4  506  14.763  16.185   6.727 -0.1019 -0.1661 -0.2539
    1DPPC   GL1  507  14.969  16.275   6.344 -0.1581 -0.2266 -0.1908
    1DPPC   GL2  508  15.244  16.473   6.400 -0.0575  0.3128 -0.0242
    1DPPC   C1A  509  15.065  16.229   5.936  0.1454 -0.0178  0.0689
    1DPPC   C2A  510  15.069  16.266   5.545  0.0127 -0.1112  0.0293
    1DPPC   C3A  511  15.056  16.062   5.162 -0.0720 -0.0925  0.1934
    1DPPC   C4A  512  15.074  16.036   4.784  0.0666  0.0795  0.1092
    1DPPC   C1B  513  15.035  16.733   6.102  0.1980 -0.0737  0.0280
    1DPPC   C2B  514  15.023  16.798   5.693 -0.0057 -0.0599 -0.1293
    1DPPC   C3B  515  15.020  16.859   5.282 -0.1757  0.0155 -0.1648
    1DPPC   C4B  516  15.137  16.523   5.022  0.0102  0.1860  0.1872
    1DPPC   NC3  517  20.613  18.404   6.473  0.1169  0.0997  0.1633
    1DPPC   PO4  518  20.203  18.244   6.692 -0.0096  0.3752 -0.2094
    1DPPC   GL1  519  20.228  18.166   6.272  0.0432 -0.2332  0.0949
    1DPPC   GL2  520  20.096  17.889   6.074  0.1962 -0.0332 -0.0806
    1DPPC   C1A  521  20.398  18.232   5.767 -0.0025 -0.1929  0.1068
    1DPPC   C2A  522  20.411  18.188   5.359  0.0672  0.1557 -0.0022
    1DPPC   C3A  523  20.528  17.981   5.049  0.1764  0.0598 -0.0369
    1DPPC   C4A  524  20.432  18.026   4.655  0.1146 -0.2656 -0.2394
    1DPPC   C1B  525  19.975  18.054   5.653 -0.0413 -0.1547  0.0208
    1DPPC   C2B  526  19.972  17.960   5.252  0.3458 -0.1003 -0.1858
    1DPPC   C3B  527  19.984  17.941   4.865 -0.2875  0.0064  0.2392
    1DPPC   C4B  528  19.928  17.881   4.391 -0.3364  0.1131  0.1035
    1DPPC   NC3  529  12.363  16.640   7.188  0.0914 -0.2833  0.2933
    1DPPC   PO4  530  12.793  16.735   6.912 -0.0842  0.0529 -0.1793
    1DPPC   GL1  531  12.906  16.634   6.522 -0.1147  0.0195  0.0480
    1DPPC   GL2  532  12.886  16.298   6.427 -0.0935 -0.0087 -0.4211
    1DPPC   C1A  533  13.022  16.750   6.124 -0.3586 -0.1366 -0.2124
    1DPPC   C2A  534  13.051  16.672   5.700 -0.1388 -0.0592  0.0168
    1DPPC   C3A  535  13.053  16.719   5.371 -0.1921 -0.0686  0.2419
    1DPPC   C4A  536  13.197  16.872   5.032 -0.0924 -0.0830 -0.4343
    1DPPC   C1B  537  12.866  16.262   6.034 -0.1478  0.0394 -0.2083
    1DPPC   C2B  538  12.739  16.164   5.733  0.3360 -0.1067  0.1156
    1DPPC   C3B  539  12.841  16.278   5.299 -0.1982 -0.0436 -0.1299
    1DPPC   C4B  540  12.854  16.529   4.998  0.1697  0.1397 -0.0386
    1DPPC   NC3  541  14.480  19.237   6.834 -0.2742  0.3797 -0.0093
    1DPPC   PO4  542  14.029  19.203   6.894  0.0762  0.0621 -0.0300
    1DPPC   GL1  543  14.036  19.366   6.553  0.1169 -0.1083 -0.0260
    1DPPC   GL2  544  14.314  19.612   6.543 -0.2044 -0.0959  0.0570
    1DPPC   C1A  545  14.121  19.252   6.215  0.0343 -0.1831 -0.0836
    1DPPC   C2A  546  14.187  19.148   5.900 -0.0930 -0.3824 -0.0100
    1DPPC   C3A  547  13.932  19.148   5.532  0.1651  0.0244 -0.0279
    1DPPC   C4A  548  13.819  19.134   5.087 -0.3230 -0.0860 -0.0302
    1DPPC   C1B  549  14.491  19.598   6.156 -0.1660  0.0711 -0.0502
    1DPPC   C2B  550  14.578  19.352   5.686  0.2852  0.0105  0.1260
    1DPPC   C3B  551  14.368  19.208   5.354  0.1444 -0.1064  0.5707
    1DPPC   C4B  552  14.232  19.399   4.965 -0.0526  0.1186 -0.3199
    1DPPC   NC3  553  11.789  14.758   7.243  0.0295  0.2980 -0.2148
    1DPPC   PO4  554  11.620  14.287   7.152 -0.0454 -0.2142 -0.1628
    1DPPC   GL1  555  11.521  14.346   6.785 -0.0723  0.3503  0.2957
    1DPPC   GL2  556  11.835  14.220   6.574  0.0297  0.2265 -0.0239
    1DPPC   C1A  557  11.392  14.156   6.347  0.0485  0.1243 -0.1762
    1DPPC   C2A  558  11.219  14.212   6.083  0.0996 -0.0363  0.3151
    1DPPC   C3A  559  11.217  14.117   5.661  0.1016 -0.1526  0.0898
    1DPPC   C4A  560  11.293  14.087   5.165  0.1319  0.0392  0.2070
    1DPPC   C1B  561  11.899  14.100   6.119 -0.3191 -0.1481  0.1558
    1DPPC   C2B  562  11.711  14.058   5.744 -0.1153  0.2292  0.1929
    1DPPC   C3B  563  11.693  13.837   5.429  0.2218  0.0810  0.1737
    1DPPC   C4B  564  11.763  13.393   5.356 -0.0615  0.1308  0.0886
    1DPPC   NC3  565  11.870  17.713   7.046 -0.0996  0.2802  0.2031
    1DPPC   PO4  566  12.092  17.380   6.848 -0.2675  0.0881  0.0559
    1DPPC   GL1  567  12.029  17.259   6.378 -0.0354  0.0121  0.3414
    1DPPC   GL2  568  11.938  16.903   6.275 -0.0083  0.0189 -0.0824
    1DPPC   C1A  569  12.229  17.183   5.931  0.2385  0.0368 -0.3053
    1DPPC   C2A  570  12.292  17.216   5.510 -0.0725  0.2760 -0.1281
    1DPPC   C3A  571  12.300  17.205   5.079  0.0348 -0.0307  0.1538
    1DPPC   C4A  572  12.137  17.212   4.709 -0.1803  0.0448  0.0592
    1DPPC   C1B  573  11.967  16.799   5.855  0.2081 -0.1197 -0.0052
    1DPPC   C2B  574  12.012  16.837   5.453 -0.0761 -0.2430 -0.0515
    1DPPC   C3B  575  11.914  16.753   5.075 -0.1991  0.2236 -0.0147
    1DPPC   C4B  576  11.803  16.649   4.628 -0.0447 -0.1058 -0.1882
    1DPPC   NC3  577   7.456  11.507   7.306  0.2422 -0.2339  0.0647
    1DPPC   PO4  578   7.836  11.735   7.509 -0.0481  0.0092  0.0016
    1DPPC   GL1  579   7.780  11.809   7.001  0.0780  0.1613 -0.1002
    1DPPC   GL2  580   7.451  11.749   6.879  0.0904 -0.2215 -0.1134
    1DPPC   C1A  581   7.896  12.018   6.642 -0.3094 -0.1173  0.2311
    1DPPC   C2A  582   7.924  11.872   6.245 -0.0924  0.3041  0.5693
    1DPPC   C3A  583   7.920  11.839   5.831 -0.0755 -0.2666  0.2083
    1DPPC   C4A  584   8.029  11.534   5.459 -0.0253 -0.1504 -0.1706
    1DPPC   C1B  585   7.498  11.875   6.423  0.3343 -0.4326 -0.3887
    1DPPC   C2B  586   7.422  11.883   6.040 -0.1843 -0.0594 -0.0002
    1DPPC   C3B  587   7.393  11.535   5.714 -0.0682 -0.0412  0.0731
    1DPPC   C4B  588   7.639  11.265   5.551  0.1145 -0.0410  0.0710
    1DPPC   NC3  589  15.529  17.614   7.333  0.0444  0.1486  0.3483
    1DPPC   PO4  590  15.124  17.761   7.094  0.0632 -0.2484  0.1356
    1DPPC   GL1  591  15.189  17.830   6.616 -0.1800  0.0617 -0.0266
    1DPPC   GL2  592  15.394  17.536   6.379  0.2242  0.0755  0.0380
    1DPPC   C1A  593  15.196  18.001   6.169 -0.1656  0.1335 -0.2466
    1DPPC   C2A  594  15.257  17.959   5.732 -0.1820 -0.0562 -0.1687
    1DPPC   C3A  595  15.263  17.889   5.297 -0.2013  0.2939 -0.3719
    1DPPC   C4A  596  15.460  17.973   4.832  0.1011  0.1268 -0.1660
    1DPPC   C1B  597  15.467  17.522   5.921  0.1044 -0.0578 -0.1735
    1DPPC   C2B  598  15.531  17.500   5.555 -0.0218 -0.1005 -0.0973
    1DPPC   C3B  599  15.638  17.605   5.096  0.3314  0.0422  0.1922
    1DPPC   C4B  600  15.907  17.634   4.749  0.2055 -0.1812  0.2059
    1DPPC   NC3  601  22.187  15.770   6.509 -0.0597  0.3179  0.1889
    1DPPC   PO4  602  22.252  15.432   6.106 -0.2052  0.3539  0.3844
    1DPPC   GL1  603  22.325  15.724   5.685  0.0892 -0.3432 -0.1982
    1DPPC   GL2  604  22.637  15.793   5.619 -0.1925 -0.1271 -0.1602
    1DPPC   C1A  605  22.114  15.940   5.385 -0.0885 -0.0673  0.2445
    1DPPC   C2A  606  22.047  15.931   5.039 -0.3533 -0.1210  0.3498
    1DPPC   C3A  607  21.919  16.154   4.655  0.0405 -0.0896  0.0153
    1DPPC   C4A  608  21.729  16.451   4.373 -0.2367  0.3319 -0.1331
    1DPPC   C1B  609  22.564  15.826   5.070 -0.2095  0.1227 -0.1909
    1DPPC   C2B  610  22.571  15.798   4.672  0.0454 -0.0881 -0.2759
    1DPPC   C3B  611  22.316  15.972   4.398  0.0304  0.0153  0.1031
    1DPPC   C4B  612  22.130  16.276   4.144  0.1646  0.0795 -0.1600
    1DPPC   NC3  613  19.055  11.571   6.662  0.1905  0.0907 -0.2304
    1DPPC   PO4  614  18.675  11.643   6.385  0.0275  0.2307  0.1133
    1DPPC   GL1  615  19.061  11.755   6.141 -0.0462 -0.3723 -0.2968
    1DPPC   GL2  616  19.014  12.011   6.336  0.0729  0.0739 -0.0595
    1DPPC   C1A  617  19.340  11.825   5.830  0.3326 -0.0966  0.1445
    1DPPC   C2A  618  19.276  11.800   5.344 -0.2155  0.0011 -0.1456
    1DPPC   C3A  619  19.285  11.650   4.870  0.0988  0.0166  0.2004
    1DPPC   C4A  620  19.400  11.559   4.445 -0.0609 -0.2930 -0.0133
    1DPPC   C1B  621  18.944  12.163   5.869  0.0226  0.2639  0.1110
    1DPPC   C2B  622  18.982  12.152   5.500 -0.1153 -0.2426 -0.3119
    1DPPC   C3B  623  18.996  12.112   4.982 -0.1073 -0.1545 -0.1304
    1DPPC   C4B  624  19.049  11.937   4.594 -0.0893 -0.5755  0.2213
    1DPPC   NC3  625  11.857  12.940   7.431  0.1479  0.0395 -0.3395
    1DPPC   PO4  626  12.043  12.591   7.295 -0.0143  0.0896 -0.0658
    1DPPC   GL1  627  12.247  12.443   6.858 -0.1320  0.1164 -0.0027
    1DPPC   GL2  628  12.492  12.178   6.906  0.1141 -0.0116  0.0815
    1DPPC   C1A  629  12.215  12.314   6.466 -0.0837  0.1014  0.0226
    1DPPC   C2A  630  12.252  12.016   6.125 -0.1607 -0.1219 -0.3614
    1DPPC   C3A  631  12.223  11.693   5.788  0.1879  0.1528  0.1891
    1DPPC   C4A  632  12.208  11.687   5.355  0.1220 -0.0892 -0.1632
    1DPPC   C1B  633  12.623  11.893   6.563  0.0974  0.0230  0.1467
    1DPPC   C2B  634  12.626  11.648   6.191  0.0245  0.0340  0.1805
    1DPPC   C3B  635  12.651  11.487   5.713  0.1804 -0.1621 -0.3736
    1DPPC   C4B  636  12.658  11.538   5.292  0.0496  0.2990  0.0763
    1DPPC   NC3  637   9.801  12.734   7.355  0.1520 -0.0201 -0.1073
    1DPPC   PO4  638  10.149  12.875   7.056 -0.1809  0.0580 -0.2821
    1DPPC   GL1  639  10.196  12.987   6.631  0.0979 -0.0075 -0.2844
    1DPPC   GL2  640   9.896  13.207   6.466  0.0294 -0.2596  0.1443
    1DPPC   C1A  641  10.174  12.925   6.162  0.1222  0.2196 -0.1835
    1DPPC   C2A  642  10.230  12.806   5.780  0.0142  0.5672  0.3000
    1DPPC   C3A  643  10.337  12.531   5.471 -0.1285  0.0146 -0.1195
    1DPPC   C4A  644  10.638  12.465   5.121 -0.0659  0.2535 -0.0406
    1DPPC   C1B  645   9.814  13.222   6.006  0.0785  0.0030  0.0813
    1DPPC   C2B  646   9.824  13.065   5.611 -0.2258  0.2035  0.1113
    1DPPC   C3B  647   9.877  13.058   5.194  0.5348 -0.0772  0.1246
    1DPPC   C4B  648  10.058  13.088   4.841 -0.1231  0.1175  0.0483
    1DPPC   NC3  649   3.593   8.503   6.525 -0.0698 -0.3095 -0.0882
    1DPPC   PO4  650   4.021   8.724   6.500 -0.1604  0.0029  0.0053
    1DPPC   GL1  651   4.109   8.680   6.074  0.0942 -0.1226 -0.1506
    1DPPC   GL2  652   4.401   8.726   5.854  0.2210 -0.0449  0.1237
    1DPPC   C1A  653   3.984   8.745   5.609 -0.2148  0.0089  0.0029
    1DPPC   C2A  654   3.813   8.557   5.179 -0.1293  0.0403  0.0686
    1DPPC   C3A  655   3.532   8.252   5.065  0.2663  0.1845 -0.1666
    1DPPC   C4A  656   3.328   8.523   4.806  0.0176 -0.1840 -0.6275
    1DPPC   C1B  657   4.812   8.503   6.011 -0.3301 -0.1051 -0.0262
    1DPPC   C2B  658   5.148   8.258   5.900  0.1156 -0.1289 -0.0957
    1DPPC   C3B  659   5.383   7.830   5.764  0.0348 -0.0272  0.1199
    1DPPC   C4B  660   5.839   7.651   5.727  0.0565 -0.1722 -0.2088
    1DPPC   NC3  661  21.000  14.008   6.295 -0.1098 -0.0928  0.1876
    1DPPC   PO4  662  20.823  14.427   6.240  0.1266 -0.2284  0.1176
    1DPPC   GL1  663  20.989  14.535   5.828  0.2281 -0.2732 -0.4780
    1DPPC   GL2  664  20.866  14.402   5.686  0.2770 -0.1809 -0.1647
    1DPPC   C1A  665  21.205  14.811   5.500 -0.1220  0.1064 -0.1865
    1DPPC   C2A  666  21.234  14.936   5.043  0.0923  0.1973  0.1317
    1DPPC   C3A  667  21.133  15.076   4.559  0.3816  0.1044  0.0722
    1DPPC   C4A  668  21.047  15.108   4.111  0.3722  0.2369  0.0573
    1DPPC   C1B  669  20.950  14.429   5.221  0.4121  0.1173 -0.1798
    1DPPC   C2B  670  21.131  14.468   4.863  0.1750  0.0273  0.0042
    1DPPC   C3B  671  21.415  14.255   4.551  0.0345  0.1286 -0.0013
    1DPPC   C4B  672  21.742  14.376   4.293  0.3889  0.0542  0.0260
    1DPPC   NC3  673  18.947   9.261   7.142  0.1083 -0.0377 -0.2675
    1DPPC   PO4  674  19.094   9.427   6.761  0.0669 -0.4991 -0.1236
    1DPPC   GL1  675  19.104   9.340   6.272 -0.1040  0.1201  0.0198
    1DPPC   GL2  676  19.347   9.091   6.209  0.0011  0.0686 -0.0444
    1DPPC   C1A  677  19.146   9.437   5.883  0.1638  0.2316  0.1959
    1DPPC   C2A  678  19.144   9.415   5.514  0.2811  0.1080  0.1511
    1DPPC   C3A  679  19.272   9.184   5.186 -0.1389 -0.2522  0.0711
    1DPPC   C4A  680  19.131   9.123   4.648 -0.1931 -0.0560  0.0272
    1DPPC   C1B  681  19.260   8.985   5.797  0.1755  0.1703  0.3016
    1DPPC   C2B  682  19.388   8.747   5.419  0.1300 -0.3155 -0.0752
    1DPPC   C3B  683  19.650   8.599   5.124  0.0212 -0.3484  0.0880
    1DPPC   C4B  684  19.762   8.246   4.733 -0.1261  0.0950 -0.1505
    1DPPC   NC3  685   1.577  15.282   5.922 -0.4359 -0.0268 -0.1854
    1DPPC   PO4  686   1.878  15.021   5.704  0.1290 -0.3828  0.0032
    1DPPC   GL1  687   1.864  14.973   5.298  0.1918 -0.1932  0.1817
    1DPPC   GL2  688   2.083  14.811   5.165 -0.2427 -0.0661  0.1523
    1DPPC   C1A  689   1.535  15.155   5.035 -0.2016 -0.0885  0.0990
    1DPPC   C2A  690   1.195  15.117   4.674  0.2325 -0.1315 -0.0469
    1DPPC   C3A  691   0.790  14.918   4.592 -0.0537  0.0718  0.0072
    1DPPC   C4A  692   0.361  14.841   4.825 -0.2907 -0.0142 -0.1831
    1DPPC   C1B  693   2.180  14.612   4.810  0.1006 -0.1851 -0.3795
    1DPPC   C2B  694   2.328  14.586   4.435 -0.0667  0.2101 -0.0880
    1DPPC   C3B  695   2.453  14.830   4.122 -0.3878 -0.0784 -0.1010
    1DPPC   C4B  696   2.512  14.754   3.712 -0.1331  0.1714 -0.0302
    1DPPC   NC3  697  15.777  21.601   7.010  0.0462  0.0673  0.0956
    1DPPC   PO4  698  15.538  21.273   6.857  0.0681 -0.0111 -0.4775
    1DPPC   GL1  699  15.350  21.236   6.468 -0.0886  0.0973  0.0321
    1DPPC   GL2  700  15.273  21.479   6.435  0.1988  0.0292 -0.1936
    1DPPC   C1A  701  15.265  20.986   6.074  0.0240  0.0581  0.0428
    1DPPC   C2A  702  15.266  20.980   5.615 -0.2404  0.0423 -0.0599
    1DPPC   C3A  703  15.251  21.154   5.257  0.1198  0.2417 -0.1874
    1DPPC   C4A  704  15.187  21.179   4.935 -0.1039 -0.0187 -0.4599
    1DPPC   C1B  705  15.446  21.521   6.057  0.1693  0.3118 -0.0329
    1DPPC   C2B  706  15.470  21.441   5.564  0.0014 -0.0993 -0.0153
    1DPPC   C3B  707  15.570  21.560   5.140 -0.0230 -0.1580 -0.1610
    1DPPC   C4B  708  15.434  21.515   4.764 -0.1119 -0.0667  0.0191
    1DPPC   NC3  709  20.873   9.885   6.560  0.2032 -0.1659 -0.0905
    1DPPC   PO4  710  21.126   9.606   6.408  0.2476  0.2733 -0.1127
    1DPPC   GL1  711  21.061   9.880   6.062  0.1660 -0.3993 -0.1480
    1DPPC   GL2  712  20.910  10.187   6.069  0.3273 -0.2943 -0.0185
    1DPPC   C1A  713  21.159   9.721   5.770  0.0877  0.4309  0.2365
    1DPPC   C2A  714  21.118   9.800   5.407  0.0259  0.0966 -0.0507
    1DPPC   C3A  715  21.102   9.926   4.933 -0.0988  0.1472  0.0806
    1DPPC   C4A  716  20.903   9.834   4.458  0.0675  0.1677  0.0262
    1DPPC   C1B  717  20.985  10.196   5.628  0.1089  0.0476  0.2107
    1DPPC   C2B  718  20.964  10.275   5.247 -0.0518  0.0394 -0.2288
    1DPPC   C3B  719  21.224  10.393   4.855 -0.0611 -0.0086  0.1553
    1DPPC   C4B  720  21.411  10.717   4.565 -0.3204  0.1624  0.1515
    1DPPC   NC3  721   4.493  12.584   6.323 -0.1111 -0.3956 -0.3381
    1DPPC   PO4  722   4.078  12.557   6.400 -0.0137 -0.1142 -0.2196
    1DPPC   GL1  723   4.172  12.278   6.066 -0.3042 -0.0820  0.0521
    1DPPC   GL2  724   4.263  12.544   5.784  0.0639  0.3753 -0.2727
    1DPPC   C1A  725   4.143  12.078   5.742 -0.0868  0.2579  0.0574
    1DPPC   C2A  726   4.217  11.856   5.356  0.1017  0.1607  0.3078
    1DPPC   C3A  727   4.068  12.040   4.932 -0.1421  0.0348 -0.0448
    1DPPC   C4A  728   4.287  11.840   4.561  0.0587 -0.0234  0.0182
    1DPPC   C1B  729   4.225  12.379   5.342  0.0445  0.0700  0.1913
    1DPPC   C2B  730   4.094  12.679   5.116 -0.2670 -0.4807  0.2457
    1DPPC   C3B  731   3.875  12.575   4.789 -0.0484 -0.0900  0.0043
    1DPPC   C4B  732   3.600  12.735   4.689  0.1545 -0.1514 -0.1975
    1DPPC   NC3  733  20.185  19.597   6.244 -0.1857  0.0785 -0.1079
    1DPPC   PO4  734  20.304  19.169   6.271 -0.1852 -0.2672  0.1088
    1DPPC   GL1  735  20.220  19.250   5.833  0.3870  0.0048 -0.2593
    1DPPC   GL2  736  19.942  19.426   5.869 -0.0382 -0.2553 -0.1253
    1DPPC   C1A  737  20.278  18.997   5.421  0.2943 -0.2200  0.0091
    1DPPC   C2A  738  20.356  18.944   5.012  0.0274  0.2109 -0.2652
    1DPPC   C3A  739  20.354  18.997   4.608  0.1399  0.2150  0.0102
    1DPPC   C4A  740  20.322  18.682   4.361 -0.1272  0.1954 -0.0582
    1DPPC   C1B  741  19.823  19.301   5.476 -0.0889  0.1838  0.0819
    1DPPC   C2B  742  19.970  19.401   5.042 -0.2306 -0.1046 -0.3005
    1DPPC   C3B  743  19.903  19.281   4.728 -0.0744  0.1933  0.0895
    1DPPC   C4B  744  19.936  18.967   4.340  0.0370  0.0082  0.1983
    1DPPC   NC3  745  19.302  10.148   6.989 -0.0487  0.0869  0.1947
    1DPPC   PO4  746  18.919  10.277   6.612 -0.1089 -0.0881 -0.0207
    1DPPC   GL1  747  18.871  10.148   6.236 -0.2944  0.2038  0.0124
    1DPPC   GL2  748  18.935   9.802   6.087  0.0238 -0.2250 -0.1554
    1DPPC   C1A  749  18.701  10.259   5.904 -0.0886 -0.0275 -0.1732
    1DPPC   C2A  750  18.754  10.174   5.488  0.0337  0.0596 -0.0966
    1DPPC   C3A  751  18.759   9.983   5.107 -0.1773 -0.4512 -0.0201
    1DPPC   C4A  752  18.667   9.916   4.730 -0.0808 -0.1327  0.0168
    1DPPC   C1B  753  19.158   9.981   5.756  0.1447  0.0779 -0.1788
    1DPPC   C2B  754  19.182   9.901   5.378  0.1504 -0.1304  0.0769
    1DPPC   C3B  755  19.236   9.689   4.935  0.1765 -0.3144 -0.0793
    1DPPC   C4B  756  19.396   9.741   4.575 -0.3247  0.3216  0.1694
    1DPPC   NC3  757  16.352  20.094   6.959 -0.0907  0.0998 -0.2251
    1DPPC   PO4  758  15.926  20.119   6.849 -0.0069 -0.0077  0.1256
    1DPPC   GL1  759  16.011  19.867   6.478 -0.2252 -0.2470  0.1203
    1DPPC   GL2  760  16.400  19.901   6.483  0.0456  0.0021 -0.0152
    1DPPC   C1A  761  16.024  20.123   6.131  0.0296 -0.2516 -0.1374
    1DPPC   C2A  762  15.916  20.044   5.764  0.4667  0.0310  0.0600
    1DPPC   C3A  763  15.707  19.865   5.419  0.0620  0.0801  0.1147
    1DPPC   C4A  764  15.602  19.934   4.932 -0.1998  0.1009  0.1285
    1DPPC   C1B  765  16.719  19.853   6.174  0.1601 -0.2468  0.2065
    1DPPC   C2B  766  16.918  20.120   5.876 -0.2679 -0.0936  0.0831
    1DPPC   C3B  767  17.156  20.265   5.550  0.1324  0.2233  0.0307
    1DPPC   C4B  768  17.149  20.588   5.219  0.0467  0.0890  0.0669
    1DPPC   NC3  769  17.217  15.728   6.508  0.1868 -0.0319  0.1041
    1DPPC   PO4  770  17.002  15.927   6.826  0.0771 -0.1296 -0.1641
    1DPPC   GL1  771  16.958  16.243   6.505  0.4458  0.1900  0.1702
    1DPPC   GL2  772  16.861  16.019   6.179 -0.0505 -0.0449  0.1627
    1DPPC   C1A  773  16.979  16.457   6.071  0.0089 -0.2204  0.1427
    1DPPC   C2A  774  16.949  16.455   5.596  0.1284  0.2489  0.0657
    1DPPC   C3A  775  16.970  16.584   5.114  0.0404  0.1866  0.1141
    1DPPC   C4A  776  17.178  16.774   4.758 -0.0851 -0.1615  0.0273
    1DPPC   C1B  777  16.934  15.918   5.739 -0.2203 -0.2068  0.0537
    1DPPC   C2B  778  16.922  16.018   5.232  0.3706 -0.1490  0.1551
    1DPPC   C3B  779  16.826  16.211   4.879 -0.2775 -0.1177  0.0298
    1DPPC   C4B  780  16.861  16.488   4.551  0.1879 -0.0137 -0.2520
    1DPPC   NC3  781  12.709  15.645   6.982  0.3421  0.1194  0.1382
    1DPPC   PO4  782  12.687  15.978   6.738  0.2012  0.4403 -0.0428
    1DPPC   GL1  783  12.638  15.898   6.368 -0.1122  0.0985 -0.1890
    1DPPC   GL2  784  12.431  16.224   6.254  0.2245 -0.1913 -0.2094
    1DPPC   C1A  785  12.821  15.667   5.916  0.1941 -0.1725  0.2540
    1DPPC   C2A  786  12.707  15.745   5.511 -0.0791 -0.3195  0.2962
    1DPPC   C3A  787  12.423  15.733   5.160  0.2230 -0.2182 -0.3495
    1DPPC   C4A  788  11.917  15.879   5.042 -0.0757  0.0518  0.2111
    1DPPC   C1B  789  12.251  16.021   5.876 -0.0193 -0.0675  0.1304
    1DPPC   C2B  790  12.182  16.016   5.421  0.0539  0.1049 -0.1495
    1DPPC   C3B  791  12.318  16.209   5.014 -0.0997  0.0442 -0.3337
    1DPPC   C4B  792  12.631  16.284   4.642  0.0082 -0.0826  0.1031
    1DPPC   NC3  793  15.945   9.350   7.093 -0.0247  0.0426 -0.1552
    1DPPC   PO4  794  16.228   9.612   6.801  0.1299 -0.2089  0.0934
    1DPPC   GL1  795  15.942   9.575   6.553 -0.2337 -0.3103  0.0907
    1DPPC   GL2  796  15.698   9.258   6.677  0.0632 -0.0598 -0.0575
    1DPPC   C1A  797  15.966   9.655   6.145 -0.0549 -0.0894  0.2266
    1DPPC   C2A  798  15.851   9.450   5.776 -0.2801 -0.1241  0.1315
    1DPPC   C3A  799  15.812   9.544   5.342  0.0531 -0.1089 -0.3375
    1DPPC   C4A  800  15.685   9.642   5.033  0.0375  0.0774 -0.0264
    1DPPC   C1B  801  15.400   9.131   6.352  0.1684  0.3679 -0.1368
    1DPPC   C2B  802  15.366   9.107   5.842  0.1071 -0.1032 -0.2615
    1DPPC   C3B  803  15.440   8.968   5.514  0.1079  0.2194  0.1308
    1DPPC   C4B  804  15.592   9.090   5.275 -0.2876 -0.4342 -0.1435
    1DPPC   NC3  805  14.450  14.622   6.777 -0.2845  0.0985  0.2438
    1DPPC   PO4  806  14.687  14.882   6.568 -0.0294  0.3597  0.1719
    1DPPC   GL1  807  14.693  14.797   6.243  0.0469 -0.1616 -0.0174
    1DPPC   GL2  808  14.327  14.876   6.216 -0.0259 -0.6159  0.0999
    1DPPC   C1A  809  14.736  14.767   5.927 -0.0848 -0.3761  0.2478
    1DPPC   C2A  810  14.746  14.927   5.541  0.0695  0.3186 -0.1848
    1DPPC   C3A  811  14.505  14.818   5.222 -0.1824  0.1371  0.1772
    1DPPC   C4A  812  14.346  14.949   4.839 -0.2580  0.0957  0.1224
    1DPPC   C1B  813  14.075  14.911   5.777 -0.1575 -0.0834  0.1238
    1DPPC   C2B  814  14.072  15.049   5.345  0.0279  0.1372  0.2173
    1DPPC   C3B  815  13.902  15.125   4.978 -0.1148 -0.0590  0.0031
    1DPPC   C4B  816  13.906  14.834   4.603  0.0738 -0.1427 -0.2062
    1DPPC   NC3  817  18.281   6.338   7.055 -0.0178 -0.0810  0.1499
    1DPPC   PO4  818  18.666   6.614   6.957  0.0186  0.0684  0.2447
    1DPPC   GL1  819  18.991   6.407   6.639 -0.0336 -0.3033 -0.3730
    1DPPC   GL2  820  19.286   6.594   6.527  0.2591  0.2062 -0.1406
    1DPPC   C1A  821  19.078   6.228   6.268  0.1674  0.1881 -0.0108
    1DPPC   C2A  822  19.057   6.102   5.887 -0.0510 -0.2187 -0.0432
    1DPPC   C3A  823  19.496   6.196   5.776 -0.2409  0.2687  0.2770
    1DPPC   C4A  824  19.610   6.318   5.379 -0.1759 -0.2145  0.0211
    1DPPC   C1B  825  19.536   6.425   6.210  0.0831  0.1299 -0.0900
    1DPPC   C2B  826  19.914   6.465   5.892 -0.1191  0.0410 -0.1970
    1DPPC   C3B  827  20.065   6.426   5.497 -0.1029  0.0552  0.2204
    1DPPC   C4B  828  20.144   6.227   5.079  0.0735 -0.0296  0.0418
    1DPPC   NC3  829  28.705  10.173   5.771 -0.2156 -0.0763 -0.0929
    1DPPC   PO4  830  28.373  10.314   6.036 -0.0120  0.1250  0.0008
    1DPPC   GL1  831  28.303  10.478   5.549 -0.1473 -0.0069  0.0305
    1DPPC   GL2  832  28.096  10.275   5.408 -0.0537 -0.0045 -0.0130
    1DPPC   C1A  833  28.313  10.726   5.207  0.2214 -0.1931  0.2677
    1DPPC   C2A  834  28.254  10.836   4.840  0.3627 -0.0206 -0.1781
    1DPPC   C3A  835  28.022  10.887   4.436  0.2491 -0.0094  0.4666
    1DPPC   C4A  836  27.809  11.200   4.092  0.1348 -0.0057  0.0554
    1DPPC   C1B  837  28.359  10.096   5.175 -0.3121 -0.1511 -0.1176
    1DPPC   C2B  838  28.133  10.173   4.813  0.0982 -0.0754  0.0268
    1DPPC   C3B  839  28.023   9.798   4.567  0.1817 -0.0938 -0.1708
    1DPPC   C4B  840  27.835   9.406   4.400 -0.0427 -0.0674 -0.0680
    1DPPC   NC3  841   8.946  16.869   6.549 -0.3757  0.3408  0.2454
    1DPPC   PO4  842   9.374  16.645   6.704 -0.0992 -0.2325  0.4491
    1DPPC   GL1  843   9.372  16.794   6.300 -0.0476  0.1168  0.1494
    1DPPC   GL2  844   9.250  16.963   6.150  0.1973 -0.0427 -0.1253
    1DPPC   C1A  845   9.389  16.578   5.890  0.1011 -0.2452 -0.0931
    1DPPC   C2A  846   9.382  16.415   5.544  0.0391  0.0476  0.3684
    1DPPC   C3A  847   9.401  16.478   5.112  0.0247 -0.2210 -0.0603
    1DPPC   C4A  848   9.259  16.255   4.819 -0.2570 -0.0348 -0.1212
    1DPPC   C1B  849   9.140  16.967   5.791  0.1150 -0.1306 -0.0788
    1DPPC   C2B  850   9.102  16.817   5.415  0.0459 -0.0642 -0.2094
    1DPPC   C3B  851   8.901  16.951   4.986 -0.0701 -0.2465 -0.1169
    1DPPC   C4B  852   8.510  16.681   4.851  0.2395 -0.1737  0.1343
    1DPPC   NC3  853  17.803  18.261   6.714  0.0382  0.1002 -0.2573
    1DPPC   PO4  854  17.463  18.493   6.594 -0.0865  0.3815  0.2115
    1DPPC   GL1  855  17.789  18.694   6.299 -0.0566 -0.1008 -0.2468
    1DPPC   GL2  856  18.073  18.674   6.533 -0.0338  0.2075 -0.1773
    1DPPC   C1A  857  17.997  18.600   5.824 -0.3663  0.2324 -0.2500
    1DPPC   C2A  858  18.202  18.403   5.585 -0.1441  0.0103  0.0769
    1DPPC   C3A  859  18.196  18.434   5.114 -0.0403 -0.0067  0.0902
    1DPPC   C4A  860  18.130  18.193   4.726 -0.0359 -0.1369  0.3329
    1DPPC   C1B  861  18.317  18.561   6.158  0.1112 -0.1665  0.0895
    1DPPC   C2B  862  18.670  18.713   5.864  0.2147 -0.0111 -0.1108
    1DPPC   C3B  863  18.653  18.646   5.412  0.1658  0.1770  0.3174
    1DPPC   C4B  864  18.701  18.463   4.959  0.2008 -0.1539  0.0365
    1DPPC   NC3  865  15.349  17.355   6.859  0.1369 -0.0386  0.1035
    1DPPC   PO4  866  15.098  17.142   6.737  0.1570  0.0254  0.2038
    1DPPC   GL1  867  15.325  17.009   6.408  0.3504 -0.0603  0.2789
    1DPPC   GL2  868  15.632  17.041   6.493  0.1953  0.1834 -0.0449
    1DPPC   C1A  869  15.398  17.036   5.879  0.1736  0.0898 -0.1127
    1DPPC   C2A  870  15.385  17.061   5.433 -0.2253 -0.3729  0.3733
    1DPPC   C3A  871  15.357  17.228   4.947 -0.1947  0.0374  0.3542
    1DPPC   C4A  872  15.419  17.555   4.580 -0.0616 -0.0015  0.0560
    1DPPC   C1B  873  15.750  17.215   6.167 -0.0598 -0.2443 -0.0299
    1DPPC   C2B  874  15.878  17.060   5.861 -0.3349 -0.0536 -0.0971
    1DPPC   C3B  875  15.910  17.102   5.399  0.2045 -0.1435 -0.1230
    1DPPC   C4B  876  15.841  17.148   4.991  0.3529 -0.0480  0.0760
    1DPPC   NC3  877  19.537  12.676   7.064  0.1004 -0.1001 -0.1973
    1DPPC   PO4  878  19.694  12.376   6.776 -0.0611 -0.0410 -0.0581
    1DPPC   GL1  879  19.700  12.441   6.319  0.2350  0.1090 -0.1093
    1DPPC   GL2  880  19.414  12.274   6.208  0.1531  0.0310 -0.0023
    1DPPC   C1A  881  19.895  12.448   5.912  0.3054  0.1095 -0.0399
    1DPPC   C2A  882  19.950  12.396   5.518 -0.1351  0.1692  0.3135
    1DPPC   C3A  883  20.029  12.243   5.046  0.2703  0.2187  0.0619
    1DPPC   C4A  884  20.053  12.205   4.650  0.1157  0.1356 -0.0754
    1DPPC   C1B  885  19.452  12.266   5.739  0.0858  0.0282  0.4614
    1DPPC   C2B  886  19.484  12.254   5.273  0.1646  0.2294 -0.0417
    1DPPC   C3B  887  19.502  12.170   4.879  0.1830 -0.0593  0.0647
    1DPPC   C4B  888  19.681  11.970   4.529  0.3360 -0.0734 -0.0225
    1DPPC   NC3  889  19.389  13.512   7.087 -0.3707 -0.0873  0.2911
    1DPPC   PO4  890  19.389  13.116   6.743 -0.0949 -0.0780  0.1723
    1DPPC   GL1  891  19.334  13.166   6.314  0.0666  0.0979 -0.3041
    1DPPC   GL2  892  19.569  12.995   6.239 -0.0737 -0.0398  0.0313
    1DPPC   C1A  893  19.200  13.202   5.935  0.2009 -0.2619  0.1600
    1DPPC   C2A  894  19.145  13.158   5.522  0.1024  0.2743  0.0527
    1DPPC   C3A  895  19.258  13.090   5.178 -0.1441 -0.2898 -0.1512
    1DPPC   C4A  896  19.367  13.022   4.705 -0.0827  0.1674 -0.2542
    1DPPC   C1B  897  19.596  12.791   5.945 -0.0527 -0.0228 -0.0251
    1DPPC   C2B  898  19.509  12.755   5.561 -0.1119 -0.2393 -0.0223
    1DPPC   C3B  899  19.654  12.811   5.126 -0.0984  0.0894  0.0275
    1DPPC   C4B  900  19.651  12.619   4.722  0.0508  0.2069  0.0072
    1DPPC   NC3  901  21.246  15.282   6.295  0.2196 -0.0053  0.0087
    1DPPC   PO4  902  20.862  15.537   6.311  0.1264  0.2405  0.0817
    1DPPC   GL1  903  20.819  15.355   5.896  0.1646 -0.0711  0.0785
    1DPPC   GL2  904  21.200  15.235   5.836  0.3477  0.0399 -0.4941
    1DPPC   C1A  905  20.740  14.994   5.702  0.1040 -0.0374 -0.0758
    1DPPC   C2A  906  20.806  14.981   5.246  0.0519 -0.2345  0.1950
    1DPPC   C3A  907  20.777  14.835   4.841 -0.2494  0.0918 -0.0153
    1DPPC   C4A  908  20.880  14.587   4.430  0.2204  0.0522  0.1437
    1DPPC   C1B  909  21.095  15.306   5.491  0.1259  0.1242 -0.1702
    1DPPC   C2B  910  21.108  15.456   5.149 -0.5646  0.1241  0.1383
    1DPPC   C3B  911  21.351  15.492   4.732  0.2236 -0.2357 -0.0946
    1DPPC   C4B  912  21.313  15.504   4.329  0.1921 -0.0442  0.0728
    1DPPC   NC3  913   9.214  13.891   7.164 -0.1222  0.2675  0.4830
    1DPPC   PO4  914   9.297  14.391   7.167  0.0129 -0.0914  0.0487
    1DPPC   GL1  915   9.314  14.247   6.814  0.1475  0.1205 -0.1200
    1DPPC   GL2  916   9.532  14.042   6.767  0.0165 -0.1462 -0.3212
    1DPPC   C1A  917   9.014  14.111   6.510 -0.1137 -0.0855 -0.0768
    1DPPC   C2A  918   8.837  13.863   6.109  0.0204 -0.0120 -0.3106
    1DPPC   C3A  919   8.786  13.902   5.658 -0.1652  0.0588 -0.0941
    1DPPC   C4A  920   8.949  13.710   5.358 -0.2682  0.0876  0.1118
    1DPPC   C1B  921   9.502  14.024   6.341 -0.0756 -0.1308 -0.0385
    1DPPC   C2B  922   9.315  13.981   5.933 -0.4706  0.2135  0.0239
    1DPPC   C3B  923   9.319  14.018   5.458 -0.1580 -0.0195 -0.0065
    1DPPC   C4B  924   9.021  13.992   4.967 -0.1935 -0.1436 -0.2470
    1DPPC   NC3  925  20.828   9.247   6.556 -0.1007 -0.3475 -0.1547
    1DPPC   PO4  926  20.511   9.525   6.538 -0.0434 -0.2217 -0.0170
    1DPPC   GL1  927  20.402   9.342   6.217 -0.3154 -0.2353  0.0415
    1DPPC   GL2  928  20.158   9.035   6.139 -0.0285 -0.1082 -0.0715
    1DPPC   C1A  929  20.223   9.351   5.801 -0.0002 -0.0111 -0.3429
    1DPPC   C2A  930  20.417   9.223   5.418 -0.0081 -0.1454  0.3430
    1DPPC   C3A  931  20.436   9.267   4.970  0.0205  0.1433 -0.0487
    1DPPC   C4A  932  20.138   9.434   4.627 -0.1027 -0.1055 -0.2222
    1DPPC   C1B  933  20.238   8.886   5.720  0.1760 -0.0108 -0.2366
    1DPPC   C2B  934  20.339   8.746   5.288 -0.1299  0.0371 -0.2476
    1DPPC   C3B  935  20.534   8.370   5.074 -0.2339 -0.1963 -0.0205
    1DPPC   C4B  936  20.618   8.399   4.669  0.2777 -0.0611  0.0583
    1DPPC   NC3  937  18.189  13.153   6.462 -0.0443 -0.2843 -0.4001
    1DPPC   PO4  938  18.558  13.236   6.644  0.2245  0.4255 -0.0679
    1DPPC   GL1  939  18.610  13.351   6.169 -0.0103 -0.4711 -0.1214
    1DPPC   GL2  940  18.306  13.487   6.077 -0.0026 -0.1972 -0.3276
    1DPPC   C1A  941  18.833  13.531   5.741 -0.0798  0.2454  0.1343
    1DPPC   C2A  942  18.773  13.495   5.247 -0.0082  0.3399 -0.1675
    1DPPC   C3A  943  18.719  13.585   4.877 -0.2522  0.1325  0.0678
    1DPPC   C4A  944  18.796  13.858   4.578  0.0704  0.2401 -0.0642
    1DPPC   C1B  945  18.395  13.350   5.679  0.1420 -0.2445  0.1972
    1DPPC   C2B  946  18.313  13.372   5.251 -0.0718 -0.0413  0.0770
    1DPPC   C3B  947  18.260  13.316   4.801  0.0039  0.1687 -0.0825
    1DPPC   C4B  948  18.258  13.501   4.486 -0.0883  0.0574 -0.1962
    1DPPC   NC3  949  11.361  20.121   6.501  0.2068  0.0403  0.2213
    1DPPC   PO4  950  11.700  19.878   6.701  0.1845 -0.0066 -0.0710
    1DPPC   GL1  951  11.920  19.935   6.241 -0.1352  0.1010 -0.1763
    1DPPC   GL2  952  11.647  19.987   6.072  0.3299  0.0740  0.0218
    1DPPC   C1A  953  12.198  19.850   5.919 -0.1798 -0.2628 -0.0123
    1DPPC   C2A  954  12.090  19.732   5.534  0.0029 -0.0667 -0.3023
    1DPPC   C3A  955  12.232  19.649   5.165 -0.1187  0.0284  0.0260
    1DPPC   C4A  956  12.093  19.762   4.839 -0.1592 -0.1487  0.1177
    1DPPC   C1B  957  11.611  19.953   5.608  0.3149  0.1525 -0.1623
    1DPPC   C2B  958  11.751  19.949   5.268 -0.1342 -0.0114 -0.0735
    1DPPC   C3B  959  12.023  20.232   4.996  0.5134  0.1432 -0.1337
    1DPPC   C4B  960  12.006  20.444   4.566  0.1448 -0.0626 -0.0966
    1DPPC   NC3  961  15.093  15.133   6.592 -0.0349 -0.1614 -0.1303
    1DPPC   PO4  962  14.825  15.536   6.533  0.4246 -0.0573 -0.0087
    1DPPC   GL1  963  14.999  15.412   6.134 -0.0512  0.0810  0.0661
    1DPPC   GL2  964  15.167  15.163   6.115  0.1185  0.1960  0.3391
    1DPPC   C1A  965  15.071  15.314   5.661  0.1251  0.3039  0.2129
    1DPPC   C2A  966  15.028  15.359   5.250  0.1320  0.2546  0.0906
    1DPPC   C3A  967  14.858  15.083   5.093 -0.1082 -0.2949  0.1025
    1DPPC   C4A  968  14.876  14.795   4.811  0.3512  0.0783  0.0332
    1DPPC   C1B  969  15.519  15.354   5.731 -0.1238 -0.1799  0.0860
    1DPPC   C2B  970  15.559  15.272   5.245  0.1298  0.2334  0.3094
    1DPPC   C3B  971  15.791  15.241   4.867  0.3657 -0.1622 -0.1059
    1DPPC   C4B  972  16.086  15.383   4.527  0.0580  0.0198  0.3140
    1DPPC   NC3  973  15.826  15.422   6.791  0.1911 -0.0466 -0.0487
    1DPPC   PO4  974  15.431  15.543   6.710 -0.1360  0.4472 -0.1077
    1DPPC   GL1  975  15.525  15.481   6.289 -0.0067  0.1296  0.0472
    1DPPC   GL2  976  15.765  15.536   6.280  0.0052  0.0035 -0.0035
    1DPPC   C1A  977  15.299  15.726   5.896  0.0894 -0.2389  0.2870
    1DPPC   C2A  978  15.316  15.731   5.451  0.3481 -0.0072 -0.1925
    1DPPC   C3A  979  15.341  15.652   4.996 -0.0325  0.2784 -0.1692
    1DPPC   C4A  980  15.483  15.656   4.651 -0.3689 -0.2364 -0.0264
    1DPPC   C1B  981  15.890  15.679   5.907 -0.1073 -0.0518  0.0546
    1DPPC   C2B  982  15.840  15.672   5.488 -0.1290  0.0575 -0.3577
    1DPPC   C3B  983  15.868  15.713   5.004  0.1159 -0.0606  0.0736
    1DPPC   C4B  984  16.049  15.848   4.601 -0.0105  0.1309  0.0484
    1DPPC   NC3  985  12.879  18.060   7.200  0.0276  0.1182 -0.0008
    1DPPC   PO4  986  13.085  18.338   6.921 -0.2348  0.1938 -0.0538
    1DPPC   GL1  987  13.110  18.276   6.504  0.0535 -0.1493 -0.0797
    1DPPC   GL2  988  13.369  18.000   6.405  0.1950  0.2677 -0.1321
    1DPPC   C1A  989  13.101  18.254   6.034  0.1259  0.1855 -0.2730
    1DPPC   C2A  990  13.285  18.227   5.664 -0.0451  0.0251 -0.2554
    1DPPC   C3A  991  13.223  18.255   5.214  0.0044  0.0817 -0.0328
    1DPPC   C4A  992  13.140  18.382   4.773  0.1382  0.0847 -0.0735
    1DPPC   C1B  993  13.434  17.868   6.012  0.0009  0.5004  0.1239
    1DPPC   C2B  994  13.534  17.824   5.593 -0.2349 -0.0637  0.0694
    1DPPC   C3B  995  13.535  17.810   5.184  0.4603 -0.0971  0.0226
    1DPPC   C4B  996  13.741  17.710   4.818  0.2433 -0.1955  0.0850
    1DPPC   NC3  997  15.806  23.520   6.504  0.0417 -0.0245 -0.0351
    1DPPC   PO4  998  15.818  22.913   6.538 -0.3636 -0.0776  0.3807
    1DPPC   GL1  999  15.848  22.750   6.154 -0.2523  0.0778  0.2621
    1DPPC   GL2 1000  15.596  22.614   6.076  0.2355 -0.3084  0.2994
    1DPPC   C1A 1001  15.873  22.875   5.737  0.3454 -0.2727  0.0398
    1DPPC   C2A 1002  16.127  22.880   5.384 -0.0123  0.0307 -0.3538
    1DPPC   C3A 1003  16.021  23.043   4.971  0.0338 -0.0073 -0.1151
    1DPPC   C4A 1004  15.673  22.918   4.669  0.2081 -0.0439 -0.2182
    1DPPC   C1B 1005  15.380  22.916   5.724 -0.2065  0.1692  0.0562
    1DPPC   C2B 1006  15.402  22.893   5.288 -0.1617 -0.2116  0.2362
    1DPPC   C3B 1007  15.347  22.680   4.960  0.0513 -0.0347  0.0457
    1DPPC   C4B 1008  15.296  22.490   4.693  0.0338  0.2487  0.1321
    1DPPC   NC3 1009  15.624   8.889   7.518 -0.0255  0.3315  0.1634
    1DPPC   PO4 1010  15.561   8.817   7.122 -0.0255 -0.1380 -0.1594
    1DPPC   GL1 1011  15.300   8.694   6.856  0.0938  0.3926  0.0944
    1DPPC   GL2 1012  15.121   8.840   6.622  0.2606 -0.2743  0.0299
    1DPPC   C1A 1013  15.375   8.410   6.522 -0.2067  0.2432  0.0854
    1DPPC   C2A 1014  15.383   8.072   6.170  0.0191 -0.1568 -0.1839
    1DPPC   C3A 1015  15.503   7.852   5.810  0.3615  0.0099 -0.0823
    1DPPC   C4A 1016  15.480   8.114   5.512 -0.0603  0.3013 -0.0804
    1DPPC   C1B 1017  15.032   8.854   6.094 -0.2065 -0.1910 -0.0999
    1DPPC   C2B 1018  14.902   8.971   5.712  0.0408 -0.1630 -0.0184
    1DPPC   C3B 1019  14.979   8.942   5.375 -0.2892  0.2337  0.0018
    1DPPC   C4B 1020  15.178   8.904   4.977 -0.1431 -0.0689  0.2336
    1DPPC   NC3 1021  20.767  10.881   6.669  0.0546 -0.1507 -0.2425
    1DPPC   PO4 1022  20.306  10.520   6.686  0.5070 -0.0222 -0.0164
    1DPPC   GL1 1023  20.332  10.725   6.267  0.1487 -0.2371 -0.1944
    1DPPC   GL2 1024  20.504  10.423   6.241  0.1086 -0.2518  0.3951
    1DPPC   C1A 1025  20.139  10.768   5.935 -0.2365 -0.0310 -0.2767
    1DPPC   C2A 1026  20.072  10.727   5.567  0.1521 -0.2553  0.2701
    1DPPC   C3A 1027  19.995  10.598   5.163 -0.1019 -0.1356 -0.1522
    1DPPC   C4A 1028  19.894  10.440   4.791  0.3794 -0.3017 -0.0734
    1DPPC   C1B 1029  20.599  10.528   5.903 -0.3096 -0.0742  0.0011
    1DPPC   C2B 1030  20.565  10.510   5.509 -0.0043  0.1389 -0.1055
    1DPPC   C3B 1031  20.534  10.480   5.044 -0.2541 -0.0079  0.0357
    1DPPC   C4B 1032  20.602  10.267   4.641 -0.0507  0.0311 -0.3048
    1DPPC   NC3 1033  17.752  17.381   6.769  0.1427  0.1278 -0.2736
    1DPPC   PO4 1034  18.072  17.141   6.517  0.0716  0.0638  0.2441
    1DPPC   GL1 1035  17.694  17.217   6.241  0.2712 -0.0686 -0.1019
    1DPPC   GL2 1036  17.655  17.563   6.265 -0.0621 -0.0058 -0.0803
    1DPPC   C1A 1037  17.645  16.990   5.848 -0.1022 -0.3009 -0.0660
    1DPPC   C2A 1038  17.589  17.088   5.543 -0.0855 -0.1750  0.0674
    1DPPC   C3A 1039  17.361  17.101   5.121 -0.1861 -0.2182  0.3143
    1DPPC   C4A 1040  17.117  17.374   4.821 -0.4656  0.1929 -0.0652
    1DPPC   C1B 1041  17.402  17.444   5.915  0.0550 -0.1204 -0.0211
    1DPPC   C2B 1042  17.429  17.536   5.491 -0.1324 -0.1337 -0.0593
    1DPPC   C3B 1043  17.303  17.796   5.093  0.0906 -0.3414 -0.0376
    1DPPC   C4B 1044  17.119  17.873   4.635 -0.2375  0.0542 -0.3260
    1DPPC   NC3 1045   8.920  14.690   7.138 -0.4601 -0.2652  0.1547
    1DPPC   PO4 1046   8.850  15.052   6.808  0.3292 -0.0121  0.1008
    1DPPC   GL1 1047   8.753  15.018   6.350  0.0521 -0.0351 -0.3033
    1DPPC   GL2 1048   8.927  14.851   6.119  0.0289 -0.1496 -0.0236
    1DPPC   C1A 1049   8.875  15.291   6.038  0.2285  0.2234 -0.1070
    1DPPC   C2A 1050   8.680  15.384   5.634 -0.2362  0.4276 -0.0405
    1DPPC   C3A 1051   8.310  15.335   5.457 -0.0152  0.1557 -0.0383
    1DPPC   C4A 1052   8.178  15.589   5.135  0.0192 -0.0142  0.2462
    1DPPC   C1B 1053   9.057  14.960   5.757 -0.0200 -0.1905 -0.1072
    1DPPC   C2B 1054   9.107  14.855   5.311 -0.2511 -0.1551 -0.0399
    1DPPC   C3B 1055   8.952  14.901   4.925 -0.1984 -0.0645 -0.1847
    1DPPC   C4B 1056   9.075  15.096   4.482 -0.0324 -0.3318 -0.2501
    1DPPC   NC3 1057  14.788  11.854   7.807 -0.0444  0.2116 -0.1721
    1DPPC   PO4 1058  14.461  12.106   7.483 -0.0037  0.0863 -0.1334
    1DPPC   GL1 1059  14.298  12.007   7.071  0.1667  0.1652  0.0088
    1DPPC   GL2 1060  14.244  12.377   7.067  0.1460 -0.2902  0.2769
    1DPPC   C1A 1061  14.246  12.013   6.671  0.1992  0.4009 -0.0567
    1DPPC   C2A 1062  14.222  12.014   6.327 -0.0036  0.1788  0.0235
    1DPPC   C3A 1063  14.125  11.992   5.929  0.1427 -0.1575 -0.1296
    1DPPC   C4A 1064  14.155  11.874   5.498  0.1127 -0.0490  0.1528
    1DPPC   C1B 1065  14.122  12.462   6.705 -0.0473  0.0325 -0.1541
    1DPPC   C2B 1066  14.126  12.523   6.261  0.0360 -0.3929 -0.0741
    1DPPC   C3B 1067  14.114  12.455   5.889  0.0002  0.5415  0.0076
    1DPPC   C4B 1068  13.873  12.308   5.560  0.0625  0.0763  0.0423
    1DPPC   NC3 1069  16.134  16.859   7.096  0.0164 -0.1154  0.1227
    1DPPC   PO4 1070  15.832  17.314   7.001  0.3026  0.3443 -0.0185
    1DPPC   GL1 1071  15.949  17.541   6.609  0.1572  0.2211 -0.3306
    1DPPC   GL2 1072  15.836  17.769   6.395  0.1522  0.0801 -0.0508
    1DPPC   C1A 1073  16.273  17.369   6.281 -0.1060 -0.3155 -0.0887
    1DPPC   C2A 1074  16.348  17.416   5.858 -0.1753  0.0399  0.1907
    1DPPC   C3A 1075  16.570  17.488   5.660  0.2026  0.0680  0.1171
    1DPPC   C4A 1076  16.662  17.757   5.349 -0.3577  0.3416  0.0095
    1DPPC   C1B 1077  15.955  17.686   5.935 -0.0906 -0.1002 -0.1095
    1DPPC   C2B 1078  16.011  17.560   5.508 -0.2620  0.2211 -0.0941
    1DPPC   C3B 1079  16.211  17.665   5.153 -0.0513  0.0358  0.4128
    1DPPC   C4B 1080  16.614  17.603   4.861 -0.1330  0.2626  0.1593
    1DPPC   NC3 1081  23.693  17.566   6.258 -0.3126  0.1392  0.0278
    1DPPC   PO4 1082  24.096  17.840   6.164 -0.0804  0.0514  0.1069
    1DPPC   GL1 1083  23.908  17.966   5.851  0.1982 -0.0647 -0.0787
    1DPPC   GL2 1084  23.607  17.917   5.824 -0.1577  0.2890  0.1707
    1DPPC   C1A 1085  23.874  18.235   5.550  0.1566  0.0820  0.1108
    1DPPC   C2A 1086  23.970  18.338   5.096  0.2549  0.0421 -0.0832
    1DPPC   C3A 1087  23.845  18.435   4.645  0.2317 -0.2877 -0.1745
    1DPPC   C4A 1088  23.883  18.859   4.411  0.0921  0.1297  0.0529
    1DPPC   C1B 1089  23.354  18.087   5.518 -0.0349  0.0891 -0.2211
    1DPPC   C2B 1090  23.138  18.383   5.270 -0.0404 -0.2170 -0.0618
    1DPPC   C3B 1091  22.741  18.236   5.036 -0.1140 -0.2687 -0.3390
    1DPPC   C4B 1092  22.424  18.206   4.748  0.1184 -0.0732 -0.1019
    1DPPC   NC3 1093  20.809  23.707   7.075 -0.1651  0.1090  0.1753
    1DPPC   PO4 1094  20.435  23.968   6.882  0.1937  0.0363 -0.0944
    1DPPC   GL1 1095  20.269  23.841   6.549 -0.0299 -0.0721 -0.0725
    1DPPC   GL2 1096  20.059  24.013   6.380 -0.0166  0.4469 -0.1469
    1DPPC   C1A 1097  20.427  23.753   6.153  0.2091 -0.0760 -0.0883
    1DPPC   C2A 1098  20.541  23.460   5.878  0.2577  0.1344  0.0132
    1DPPC   C3A 1099  20.745  23.551   5.511 -0.0245  0.0848 -0.2571
    1DPPC   C4A 1100  20.966  23.573   5.115  0.2336 -0.2438 -0.0611
    1DPPC   C1B 1101  20.095  24.077   5.980 -0.3609 -0.1097 -0.1566
    1DPPC   C2B 1102  20.018  24.237   5.638 -0.3037  0.1695  0.0711
    1DPPC   C3B 1103  20.310  24.185   5.250  0.3653 -0.0407  0.1309
    1DPPC   C4B 1104  20.512  23.885   5.122  0.1598  0.0913 -0.3731
    1DPPC   NC3 1105  19.589  15.703   6.438 -0.0479  0.0203 -0.1517
    1DPPC   PO4 1106  19.578  15.192   6.378 -0.0775 -0.3971 -0.3936
    1DPPC   GL1 1107  19.711  15.079   6.038 -0.2367  0.0754  0.3447
    1DPPC   GL2 1108  19.579  14.875   5.884 -0.1208 -0.2774  0.1847
    1DPPC   C1A 1109  19.811  15.266   5.617  0.1178  0.0290 -0.2456
    1DPPC   C2A 1110  19.738  15.295   5.190  0.0280 -0.3978  0.0777
    1DPPC   C3A 1111  19.608  15.304   4.758 -0.0474  0.0269 -0.3230
    1DPPC   C4A 1112  19.412  15.300   4.314  0.0004  0.2317  0.1959
    1DPPC   C1B 1113  19.520  14.905   5.413 -0.1035 -0.4165 -0.2187
    1DPPC   C2B 1114  19.526  14.869   4.982  0.1400  0.0124 -0.0587
    1DPPC   C3B 1115  19.587  14.776   4.508  0.0648  0.1282  0.1244
    1DPPC   C4B 1116  19.335  14.359   4.291 -0.0417 -0.0110  0.2737
    1DPPC   NC3 1117  29.197  22.320   6.693  0.0200  0.0647  0.0079
    1DPPC   PO4 1118  29.047  21.973   6.302  0.0701  0.2169  0.1947
    1DPPC   GL1 1119  29.153  21.862   5.923  0.1621  0.1004 -0.0199
    1DPPC   GL2 1120  29.488  21.792   5.828 -0.0705 -0.0840 -0.1652
    1DPPC   C1A 1121  29.257  22.148   5.512 -0.1651  0.0363  0.3847
    1DPPC   C2A 1122  29.466  22.289   5.088 -0.4471 -0.0332  0.1460
    1DPPC   C3A 1123  29.293  22.374   4.653  0.0414 -0.1187  0.2410
    1DPPC   C4A 1124  29.539  22.183   4.264  0.1752 -0.3551  0.2007
    1DPPC   C1B 1125  29.635  21.632   5.454  0.1387 -0.2829 -0.1344
    1DPPC   C2B 1126  29.430  21.800   5.027  0.1847  0.1248 -0.1786
    1DPPC   C3B 1127  29.287  21.889   4.598 -0.0330 -0.2716 -0.2760
    1DPPC   C4B 1128  29.064  21.979   4.161 -0.2311  0.1629  0.0184
    1DPPC   NC3 1129  23.486  16.355   6.006 -0.0365  0.0764  0.1927
    1DPPC   PO4 1130  23.942  16.196   5.864  0.1952 -0.1314  0.0429
    1DPPC   GL1 1131  23.834  16.335   5.475 -0.2973  0.1923 -0.0431
    1DPPC   GL2 1132  23.471  16.236   5.448  0.0560 -0.1735  0.0551
    1DPPC   C1A 1133  23.935  16.481   5.134  0.2067 -0.1569  0.3057
    1DPPC   C2A 1134  24.041  16.627   4.746  0.0957 -0.2831 -0.2202
    1DPPC   C3A 1135  24.035  16.855   4.380  0.0337  0.0807 -0.0567
    1DPPC   C4A 1136  24.178  16.925   4.046  0.1571  0.3658  0.0368
    1DPPC   C1B 1137  23.542  16.192   5.053  0.2752  0.3504 -0.1789
    1DPPC   C2B 1138  23.513  16.135   4.620  0.1936  0.0975  0.1955
    1DPPC   C3B 1139  23.729  16.219   4.341  0.0537  0.0164 -0.1362
    1DPPC   C4B 1140  23.970  15.959   4.175  0.0119 -0.0901  0.2882
    1DPPC   NC3 1141   9.634  15.439   6.838  0.0498  0.0031  0.0330
    1DPPC   PO4 1142   9.187  15.680   6.802  0.0610 -0.0636 -0.0407
    1DPPC   GL1 1143   9.207  15.372   6.471  0.0647  0.3242 -0.1538
    1DPPC   GL2 1144   9.292  15.032   6.503  0.1727  0.3518 -0.2438
    1DPPC   C1A 1145   9.326  15.561   6.111 -0.0641 -0.1407  0.0036
    1DPPC   C2A 1146   9.228  15.518   5.683  0.1030  0.0324  0.0625
    1DPPC   C3A 1147   9.191  15.423   5.346  0.0627  0.1550  0.1381
    1DPPC   C4A 1148   9.203  15.357   4.930  0.1162 -0.4027 -0.1123
    1DPPC   C1B 1149   9.449  15.047   6.040 -0.0768  0.0106 -0.0713
    1DPPC   C2B 1150   9.545  15.013   5.585  0.0362 -0.0383 -0.2983
    1DPPC   C3B 1151   9.548  14.970   5.116 -0.1832 -0.3579  0.0783
    1DPPC   C4B 1152   9.411  14.703   4.768 -0.1763 -0.2754 -0.2077
    1DPPC   NC3 1153  18.332  11.342   6.560 -0.0431  0.1106  0.5196
    1DPPC   PO4 1154  18.746  11.127   6.692 -0.3084  0.1478  0.2559
    1DPPC   GL1 1155  18.890  11.197   6.342 -0.2777 -0.0797 -0.1153
    1DPPC   GL2 1156  18.670  11.131   6.150 -0.1182  0.1288  0.0879
    1DPPC   C1A 1157  19.182  11.210   6.004 -0.2259  0.0805  0.4384
    1DPPC   C2A 1158  19.142  11.313   5.590 -0.3009 -0.1380  0.0433
    1DPPC   C3A 1159  19.139  11.235   5.160 -0.2792  0.1524 -0.1387
    1DPPC   C4A 1160  19.216  11.136   4.761  0.0697  0.0759 -0.0543
    1DPPC   C1B 1161  18.792  11.031   5.751 -0.0449 -0.2099  0.1819
    1DPPC   C2B 1162  18.768  10.954   5.368 -0.0166 -0.1210  0.2978
    1DPPC   C3B 1163  18.561  10.968   4.928  0.1291 -0.1067 -0.0537
    1DPPC   C4B 1164  18.422  11.050   4.515 -0.0570  0.0493 -0.0511
    1DPPC   NC3 1165  12.704  19.595   6.984 -0.0249  0.1426 -0.1594
    1DPPC   PO4 1166  13.028  19.267   6.850 -0.0915  0.0218 -0.0441
    1DPPC   GL1 1167  13.206  19.491   6.490  0.2716 -0.1426  0.0609
    1DPPC   GL2 1168  13.611  19.616   6.567 -0.1925  0.0507  0.2248
    1DPPC   C1A 1169  13.179  19.654   6.179  0.1209 -0.1723  0.0458
    1DPPC   C2A 1170  13.146  19.650   5.702 -0.1049 -0.1138 -0.0224
    1DPPC   C3A 1171  13.172  19.604   5.287  0.0236 -0.0005  0.0619
    1DPPC   C4A 1172  13.388  19.596   4.946 -0.0698 -0.0142  0.1194
    1DPPC   C1B 1173  13.921  19.720   6.248  0.2694  0.0147  0.1760
    1DPPC   C2B 1174  14.077  19.659   5.914  0.2807 -0.1802  0.2457
    1DPPC   C3B 1175  14.230  19.661   5.497  0.1009  0.1430  0.3189
    1DPPC   C4B 1176  14.379  19.969   5.195 -0.3184 -0.1759  0.0170
    1DPPC   NC3 1177  15.528  11.565   7.373 -0.3019 -0.2107 -0.1130
    1DPPC   PO4 1178  15.765  11.323   7.067 -0.0727 -0.2016 -0.2190
    1DPPC   GL1 1179  15.681  11.481   6.668 -0.2541  0.1887  0.3485
    1DPPC   GL2 1180  15.828  11.779   6.523  0.1123  0.0555  0.1208
    1DPPC   C1A 1181  15.514  11.265   6.394 -0.0894 -0.0955  0.0408
    1DPPC   C2A 1182  15.355  11.324   5.947 -0.0599 -0.1152 -0.0550
    1DPPC   C3A 1183  15.284  11.190   5.504  0.1711 -0.1104 -0.1147
    1DPPC   C4A 1184  15.314  11.160   5.007 -0.1615 -0.0603 -0.2050
    1DPPC   C1B 1185  15.802  11.610   6.137 -0.0653 -0.1476 -0.1009
    1DPPC   C2B 1186  15.747  11.655   5.755  0.0232 -0.0640 -0.1368
    1DPPC   C3B 1187  15.664  11.509   5.397 -0.1391  0.0082 -0.0389
    1DPPC   C4B 1188  15.590  11.570   4.938 -0.4826  0.0038 -0.1235
    1DPPC   NC3 1189  18.186   7.857   6.852  0.0614  0.0794  0.3137
    1DPPC   PO4 1190  17.820   7.965   6.617 -0.0356 -0.1218 -0.1177
    1DPPC   GL1 1191  18.065   7.967   6.283 -0.0050 -0.0474  0.1008
    1DPPC   GL2 1192  18.369   7.891   6.352  0.0000  0.2018 -0.1565
    1DPPC   C1A 1193  18.063   7.942   5.848 -0.1667  0.1620  0.1171
    1DPPC   C2A 1194  18.094   7.836   5.455 -0.2453  0.0532  0.2147
    1DPPC   C3A 1195  17.851   7.786   5.139  0.0091 -0.0704  0.0977
    1DPPC   C4A 1196  17.465   7.725   4.977 -0.2372 -0.2070 -0.0686
    1DPPC   C1B 1197  18.590   7.723   5.931  0.2474  0.1093 -0.2322
    1DPPC   C2B 1198  18.625   7.574   5.531 -0.1056  0.3687 -0.2960
    1DPPC   C3B 1199  18.615   7.409   5.247 -0.0487 -0.2756  0.0147
    1DPPC   C4B 1200  18.605   7.555   4.896  0.0170  0.2602 -0.4864
    1DPPC   NC3 1201  20.437  15.676   6.538  0.1109 -0.0102  0.0709
    1DPPC   PO4 1202  20.473  16.065   6.450 -0.2817 -0.0359 -0.0218
    1DPPC   GL1 1203  20.526  15.912   6.046  0.0847 -0.2936  0.2103
    1DPPC   GL2 1204  20.411  15.628   6.001  0.0673 -0.2331  0.0234
    1DPPC   C1A 1205  20.399  16.029   5.655 -0.0277 -0.0001 -0.0818
    1DPPC   C2A 1206  20.410  16.026   5.266  0.1870  0.1223  0.0590
    1DPPC   C3A 1207  20.397  16.065   4.787  0.0342 -0.1733  0.2449
    1DPPC   C4A 1208  20.515  15.799   4.449  0.0578 -0.0372  0.1436
    1DPPC   C1B 1209  20.112  15.640   5.732 -0.1595  0.0467  0.2549
    1DPPC   C2B 1210  20.114  15.644   5.349 -0.0253 -0.2682  0.0724
    1DPPC   C3B 1211  20.093  15.561   4.942  0.0866  0.0944 -0.0167
    1DPPC   C4B 1212  20.059  15.754   4.640 -0.0243 -0.2270 -0.0848
    1DPPC   NC3 1213  10.054  16.549   7.013  0.1244  0.0158  0.0528
    1DPPC   PO4 1214  10.484  16.401   6.772  0.0657  0.2423  0.1709
    1DPPC   GL1 1215  10.478  16.207   6.441  0.1090 -0.0191  0.0114
    1DPPC   GL2 1216  10.735  15.936   6.475 -0.1207 -0.0942 -0.0776
    1DPPC   C1A 1217  10.396  16.213   6.055  0.3023  0.0775  0.1447
    1DPPC   C2A 1218  10.384  16.234   5.536  0.1312  0.2609 -0.0328
    1DPPC   C3A 1219  10.315  16.099   5.170 -0.1006 -0.1348  0.0178
    1DPPC   C4A 1220  10.109  16.034   4.808 -0.0267 -0.0341 -0.1455
    1DPPC   C1B 1221  10.853  15.959   6.047  0.0824  0.1418 -0.0522
    1DPPC   C2B 1222  10.889  15.977   5.605  0.1304 -0.0465  0.0288
    1DPPC   C3B 1223  10.821  15.939   5.072  0.0114 -0.0637  0.1616
    1DPPC   C4B 1224  10.648  16.115   4.665  0.0845  0.0495 -0.1225
    1DPPC   NC3 1225  17.826  21.527   7.162 -0.2540 -0.3789 -0.0082
    1DPPC   PO4 1226  17.730  21.265   6.834  0.2768  0.1749 -0.3017
    1DPPC   GL1 1227  17.386  21.154   6.658  0.2418  0.0213 -0.2655
    1DPPC   GL2 1228  17.253  21.330   6.497 -0.0126  0.1542  0.0919
    1DPPC   C1A 1229  17.221  20.895   6.304  0.2183 -0.0768  0.1772
    1DPPC   C2A 1230  17.004  20.748   5.926  0.0566 -0.0364  0.0069
    1DPPC   C3A 1231  16.781  20.579   5.562 -0.1000 -0.2066 -0.2132
    1DPPC   C4A 1232  16.646  20.410   5.249  0.0593 -0.1059  0.3213
    1DPPC   C1B 1233  17.278  21.426   6.033  0.0080 -0.0390 -0.0843
    1DPPC   C2B 1234  17.417  21.351   5.568  0.1986  0.3601 -0.2360
    1DPPC   C3B 1235  17.612  21.275   5.154  0.2166  0.0695  0.0851
    1DPPC   C4B 1236  17.542  21.703   4.912 -0.0501  0.0544 -0.3102
    1DPPC   NC3 1237  22.319  14.795   6.236  0.0175  0.0347 -0.1889
    1DPPC   PO4 1238  22.166  14.434   6.368  0.0465 -0.2037 -0.4101
    1DPPC   GL1 1239  22.220  14.389   5.929 -0.2487  0.0779 -0.1155
    1DPPC   GL2 1240  22.517  14.617   5.800 -0.0454 -0.0387  0.1552
    1DPPC   C1A 1241  22.058  14.281   5.572  0.0445  0.1483  0.1407
    1DPPC   C2A 1242  22.114  14.320   5.111  0.1495  0.0135  0.0050
    1DPPC   C3A 1243  22.017  14.157   4.759 -0.0527  0.1403 -0.0625
    1DPPC   C4A 1244  22.116  14.043   4.284  0.2578  0.0752 -0.0512
    1DPPC   C1B 1245  22.445  14.589   5.412 -0.3313  0.0929  0.2155
    1DPPC   C2B 1246  22.538  14.430   4.961 -0.2290  0.1849  0.2314
    1DPPC   C3B 1247  22.596  14.271   4.478  0.2897  0.1883  0.3244
    1DPPC   C4B 1248  22.599  13.861   4.237 -0.4102 -0.0587  0.1638
    1DPPC   NC3 1249  14.000  23.205   6.511 -0.0717  0.1660 -0.0638
    1DPPC   PO4 1250  13.615  23.406   6.245 -0.3087  0.2693 -0.0751
    1DPPC   GL1 1251  13.941  23.307   5.993 -0.0901  0.0627 -0.3121
    1DPPC   GL2 1252  14.132  23.486   6.150 -0.1348 -0.2070 -0.0435
    1DPPC   C1A 1253  14.003  23.324   5.637 -0.1536 -0.1572 -0.1141
    1DPPC   C2A 1254  14.064  23.456   5.168  0.2717 -0.0348  0.0458
    1DPPC   C3A 1255  14.283  23.517   4.781  0.2569  0.1246  0.1735
    1DPPC   C4A 1256  14.279  23.312   4.393 -0.0381 -0.0465  0.1650
    1DPPC   C1B 1257  14.006  23.919   6.081  0.1592  0.2147  0.2185
    1DPPC   C2B 1258  13.701  24.052   5.783  0.3350 -0.0173 -0.2181
    1DPPC   C3B 1259  13.279  24.038   5.670 -0.0695  0.2573  0.1411
    1DPPC   C4B 1260  12.882  23.969   5.418 -0.1190  0.1304  0.1152
    1DPPC   NC3 1261   8.846  18.767   7.251  0.4295  0.1868  0.1035
    1DPPC   PO4 1262   9.056  18.919   6.785  0.0315  0.0294 -0.1474
    1DPPC   GL1 1263   9.109  18.575   6.382  0.3101  0.2217  0.1752
    1DPPC   GL2 1264   9.289  18.522   6.145  0.0055 -0.2994  0.1726
    1DPPC   C1A 1265   8.905  18.191   6.148 -0.0698  0.1574 -0.3201
    1DPPC   C2A 1266   9.006  17.857   5.855  0.0162 -0.0566  0.0353
    1DPPC   C3A 1267   9.002  17.790   5.433  0.1177  0.2532  0.1550
    1DPPC   C4A 1268   8.933  17.889   4.987  0.1633  0.0697 -0.1082
    1DPPC   C1B 1269   9.236  18.313   5.700 -0.2371  0.3474  0.0102
    1DPPC   C2B 1270   9.160  18.229   5.235  0.0889 -0.3773 -0.2581
    1DPPC   C3B 1271   8.953  18.357   4.796 -0.0439  0.1061 -0.0233
    1DPPC   C4B 1272   8.945  18.315   4.298 -0.0057  0.0022  0.0228
    1DPPC   NC3 1273  16.514  17.976   7.098 -0.0609  0.1865  0.1015
    1DPPC   PO4 1274  16.648  18.275   6.822  0.4117 -0.1163  0.2118
    1DPPC   GL1 1275  16.507  18.405   6.414 -0.0676  0.1609  0.1810
    1DPPC   GL2 1276  16.778  18.369   6.269  0.0620  0.0228 -0.0790
    1DPPC   C1A 1277  16.341  18.557   6.011  0.0679  0.0242  0.1342
    1DPPC   C2A 1278  16.420  18.538   5.556  0.1400 -0.1651 -0.0213
    1DPPC   C3A 1279  16.597  18.602   5.137 -0.2925  0.0204 -0.0827
    1DPPC   C4A 1280  16.784  18.653   4.771  0.0747  0.2233  0.3416
    1DPPC   C1B 1281  16.806  18.352   5.828 -0.0130 -0.0505  0.3189
    1DPPC   C2B 1282  16.784  18.222   5.435  0.1840 -0.2801 -0.1157
    1DPPC   C3B 1283  16.919  18.147   5.011  0.0055  0.0672 -0.0482
    1DPPC   C4B 1284  16.691  18.095   4.638 -0.4112 -0.3422  0.0671
    1DPPC   NC3 1285  20.517  28.355   6.859  0.1447  0.3953  0.0428
    1DPPC   PO4 1286  20.356  28.133   6.503 -0.0361  0.1335 -0.1762
    1DPPC   GL1 1287  20.403  28.186   5.999 -0.1809  0.2342 -0.1045
    1DPPC   GL2 1288  20.710  28.056   5.928 -0.0762 -0.4678 -0.2264
    1DPPC   C1A 1289  20.069  28.154   5.637 -0.4431  0.2424  0.2750
    1DPPC   C2A 1290  20.034  28.217   5.206  0.0063  0.0674  0.1235
    1DPPC   C3A 1291  19.754  28.373   4.922 -0.3190 -0.1163  0.0033
    1DPPC   C4A 1292  19.834  28.676   4.613  0.2326 -0.0853 -0.1467
    1DPPC   C1B 1293  20.544  27.867   5.523  0.0498 -0.0136  0.0087
    1DPPC   C2B 1294  20.400  27.496   5.322 -0.2122 -0.2277  0.5824
    1DPPC   C3B 1295  20.659  27.167   5.240 -0.4114 -0.1403  0.0105
    1DPPC   C4B 1296  21.029  26.886   5.157  0.0010  0.2555  0.3472
    1DPPC   NC3 1297   0.172  11.707   6.412  0.1400  0.0555 -0.2313
    1DPPC   PO4 1298   0.399  11.395   6.134  0.2037 -0.2241 -0.0909
    1DPPC   GL1 1299   0.270  11.399   5.647  0.2627  0.0791 -0.1638
    1DPPC   GL2 1300   0.023  11.619   5.634  0.0908  0.1201  0.0833
    1DPPC   C1A 1301   0.474  11.347   5.144 -0.0987  0.0263  0.0567
    1DPPC   C2A 1302   0.822  11.462   4.959  0.0168  0.2307 -0.2462
    1DPPC   C3A 1303   1.205  11.341   4.857  0.2225 -0.3510 -0.1948
    1DPPC   C4A 1304   1.486  11.183   4.570 -0.0254 -0.1018 -0.1496
    1DPPC   C1B 1305   0.030  11.261   5.277  0.0061 -0.2610  0.0370
    1DPPC   C2B 1306   0.075  11.001   4.984  0.1815  0.2225 -0.0234
    1DPPC   C3B 1307   0.379  10.933   4.921  0.0302  0.0860  0.0861
    1DPPC   C4B 1308   0.566  11.166   4.689  0.0175  0.0797 -0.0508
    1DPPC   NC3 1309  16.256  10.244   7.449  0.2139 -0.1555  0.0597
    1DPPC   PO4 1310  15.824  10.399   7.354  0.2437  0.4464 -0.2625
    1DPPC   GL1 1311  15.844  10.395   6.853 -0.1282  0.1155 -0.0666
    1DPPC   GL2 1312  15.488  10.315   6.827 -0.1172  0.2082 -0.0504
    1DPPC   C1A 1313  15.702  10.738   6.574  0.2358  0.0566 -0.2618
    1DPPC   C2A 1314  15.543  10.756   6.145 -0.0726  0.1813  0.0645
    1DPPC   C3A 1315  15.439  10.755   5.699  0.1005 -0.3661  0.0022
    1DPPC   C4A 1316  15.469  10.587   5.297  0.1476 -0.0097 -0.0552
    1DPPC   C1B 1317  15.320  10.423   6.435  0.0465  0.0425  0.4042
    1DPPC   C2B 1318  15.187  10.425   6.003 -0.1929 -0.2596  0.0877
    1DPPC   C3B 1319  15.065  10.455   5.590 -0.1528 -0.2198 -0.0141
    1DPPC   C4B 1320  15.081  10.357   5.164  0.0115 -0.1142  0.0829
    1DPPC   NC3 1321  11.719  21.234   6.529 -0.0655 -0.3377 -0.1928
    1DPPC   PO4 1322  11.368  21.566   6.694 -0.0344 -0.2554 -0.2780
    1DPPC   GL1 1323  11.251  21.515   6.282 -0.0338 -0.1315 -0.2050
    1DPPC   GL2 1324  11.535  21.571   6.145 -0.0919 -0.0237  0.0497
    1DPPC   C1A 1325  11.100  21.497   5.851  0.2200  0.1887  0.0924
    1DPPC   C2A 1326  11.115  21.526   5.507  0.0455 -0.0601 -0.0687
    1DPPC   C3A 1327  11.152  21.457   5.091 -0.0494 -0.1236 -0.0481
    1DPPC   C4A 1328  11.221  21.403   4.634 -0.1186  0.0630  0.0464
    1DPPC   C1B 1329  11.579  21.674   5.717  0.0205 -0.0158  0.0228
    1DPPC   C2B 1330  11.502  21.809   5.354 -0.2500  0.1783  0.1993
    1DPPC   C3B 1331  11.533  21.898   4.910  0.1072  0.1600 -0.0092
    1DPPC   C4B 1332  11.964  21.844   4.702  0.3328 -0.0239  0.1989
    1DPPC   NC3 1333  10.278  20.256   6.340 -0.1784 -0.4764  0.1989
    1DPPC   PO4 1334  10.439  20.028   6.164 -0.1223 -0.1738  0.1099
    1DPPC   GL1 1335  10.570  19.837   5.802  0.0860 -0.3273  0.0771
    1DPPC   GL2 1336  10.406  19.511   5.773  0.1126  0.0134 -0.0004
    1DPPC   C1A 1337  10.726  19.662   5.328 -0.2575 -0.2278 -0.0750
    1DPPC   C2A 1338  10.676  19.818   4.886 -0.1418 -0.0373 -0.4574
    1DPPC   C3A 1339  10.971  19.988   4.652 -0.1962  0.1006  0.0924
    1DPPC   C4A 1340  11.006  20.327   4.502 -0.0447 -0.1089 -0.3835
    1DPPC   C1B 1341  10.302  19.242   5.474 -0.2009  0.0233  0.0601
    1DPPC   C2B 1342   9.964  19.129   5.135 -0.1384  0.1716 -0.0422
    1DPPC   C3B 1343   9.702  18.828   4.849 -0.1057 -0.0108 -0.1339
    1DPPC   C4B 1344   9.821  18.542   4.538 -0.1074  0.1339 -0.0005
    1DPPC   NC3 1345  21.895  13.613   6.335 -0.1439 -0.3157 -0.0606
    1DPPC   PO4 1346  21.594  13.242   6.097  0.1903  0.1519  0.0282
    1DPPC   GL1 1347  21.547  13.429   5.746  0.1365  0.0080 -0.0338
    1DPPC   GL2 1348  21.253  13.429   5.774 -0.0902 -0.4177  0.1137
    1DPPC   C1A 1349  21.666  13.434   5.390  0.1701 -0.2549  0.1032
    1DPPC   C2A 1350  21.659  13.313   5.019  0.0288 -0.0408 -0.1699
    1DPPC   C3A 1351  21.586  13.124   4.622  0.2811 -0.5027  0.1176
    1DPPC   C4A 1352  21.266  13.094   4.259 -0.1335 -0.0250  0.0055
    1DPPC   C1B 1353  21.098  13.301   5.357 -0.0850 -0.1429 -0.2807
    1DPPC   C2B 1354  21.174  13.379   5.026 -0.2923 -0.0073 -0.1040
    1DPPC   C3B 1355  21.027  13.160   4.720 -0.2590  0.0129 -0.1112
    1DPPC   C4B 1356  20.794  12.825   4.751  0.2483 -0.1070 -0.0679
    1DPPC   NC3 1357   8.960  24.750   5.999  0.3518  0.0181 -0.1666
    1DPPC   PO4 1358   9.343  25.007   5.803  0.4060 -0.1184  0.0641
    1DPPC   GL1 1359   9.181  25.057   5.450  0.2708  0.2160 -0.2655
    1DPPC   GL2 1360   9.001  24.826   5.423  0.1119  0.1131 -0.2409
    1DPPC   C1A 1361   9.155  25.302   4.997 -0.0821 -0.0663  0.1052
    1DPPC   C2A 1362   9.084  25.548   4.688  0.2089  0.0174  0.1573
    1DPPC   C3A 1363   9.191  25.981   4.656 -0.4143  0.3211 -0.0512
    1DPPC   C4A 1364   9.385  26.362   4.522  0.1238 -0.3523 -0.4703
    1DPPC   C1B 1365   8.766  24.706   5.087 -0.1733  0.0461 -0.0743
    1DPPC   C2B 1366   8.530  24.877   4.696 -0.0211  0.0733  0.1828
    1DPPC   C3B 1367   8.453  24.824   4.313 -0.2320 -0.0042 -0.2180
    1DPPC   C4B 1368   8.275  25.000   3.981  0.1828  0.3002 -0.2772
    1DPPC   NC3 1369  16.746  19.593   6.794  0.1465  0.3212  0.0471
    1DPPC   PO4 1370  16.918  19.084   6.960 -0.3372 -0.1244 -0.3352
    1DPPC   GL1 1371  16.953  19.053   6.423  0.0315 -0.1026 -0.0165
    1DPPC   GL2 1372  16.678  18.862   6.258 -0.1130 -0.1480  0.0919
    1DPPC   C1A 1373  17.033  19.397   6.052 -0.0082  0.1604  0.0364
    1DPPC   C2A 1374  17.266  19.658   5.779  0.1392 -0.1326 -0.1283
    1DPPC   C3A 1375  17.406  19.818   5.369  0.0165  0.2265 -0.0548
    1DPPC   C4A 1376  17.420  19.723   4.924 -0.1276 -0.0815 -0.1402
    1DPPC   C1B 1377  16.678  18.879   5.822  0.1332  0.0556  0.1991
    1DPPC   C2B 1378  16.636  18.949   5.528 -0.2354  0.2272  0.2148
    1DPPC   C3B 1379  16.698  19.081   5.171  0.0681 -0.0610 -0.2720
    1DPPC   C4B 1380  17.019  19.070   4.958  0.1529  0.0373 -0.3714
    1DPPC   NC3 1381  21.013  16.010   6.303 -0.0554  0.0035 -0.1060
    1DPPC   PO4 1382  21.384  15.747   6.209 -0.2394 -0.2145 -0.2721
    1DPPC   GL1 1383  21.508  15.593   5.899  0.2604  0.0402  0.1046
    1DPPC   GL2 1384  21.743  15.419   5.953  0.2632  0.1603 -0.1115
    1DPPC   C1A 1385  21.412  15.715   5.560 -0.0587  0.1964 -0.0931
    1DPPC   C2A 1386  21.524  16.004   5.369 -0.2513  0.0894 -0.0115
    1DPPC   C3A 1387  21.587  15.952   4.943 -0.0640 -0.1802  0.0054
    1DPPC   C4A 1388  21.414  16.048   4.509 -0.3039  0.2145 -0.1528
    1DPPC   C1B 1389  21.870  15.484   5.488 -0.0616 -0.0484 -0.2669
    1DPPC   C2B 1390  21.757  15.536   5.149 -0.1802  0.0078 -0.2207
    1DPPC   C3B 1391  21.860  15.591   4.664 -0.0481 -0.1377  0.0183
    1DPPC   C4B 1392  21.761  15.837   4.251  0.0523 -0.1854 -0.0083
    1DPPC   NC3 1393  15.730  12.116   7.526 -0.2196 -0.1670 -0.0765
    1DPPC   PO4 1394  15.303  12.212   7.361  0.1400 -0.2210  0.1919
    1DPPC   GL1 1395  15.126  12.349   6.988 -0.1592 -0.0227  0.0989
    1DPPC   GL2 1396  15.244  12.603   6.840  0.0737 -0.0333  0.1379
    1DPPC   C1A 1397  14.795  12.397   6.558 -0.0943  0.1456 -0.1871
    1DPPC   C2A 1398  14.606  12.331   6.225 -0.1265 -0.4366  0.0641
    1DPPC   C3A 1399  14.583  12.342   5.786 -0.0660  0.3628 -0.0667
    1DPPC   C4A 1400  14.456  12.367   5.285  0.3862  0.0238  0.1375
    1DPPC   C1B 1401  15.328  12.250   6.530 -0.0832 -0.2042 -0.0082
    1DPPC   C2B 1402  15.158  12.273   6.138  0.2001 -0.2227  0.3020
    1DPPC   C3B 1403  15.091  12.250   5.676 -0.3333  0.1892 -0.0983
    1DPPC   C4B 1404  15.188  12.443   5.254 -0.0272 -0.0171 -0.1934
    1DPPC   NC3 1405  14.310  17.822   7.082  0.0561  0.2008  0.1267
    1DPPC   PO4 1406  14.171  17.489   6.770 -0.3249  0.0465 -0.4002
    1DPPC   GL1 1407  14.292  17.423   6.425 -0.1405 -0.0128 -0.1651
    1DPPC   GL2 1408  13.921  17.220   6.297  0.0967  0.0631  0.2137
    1DPPC   C1A 1409  14.433  17.564   6.092 -0.1091  0.1371  0.6174
    1DPPC   C2A 1410  14.447  17.650   5.633 -0.0063  0.0639  0.2897
    1DPPC   C3A 1411  14.528  17.802   5.150 -0.0386  0.1676  0.0012
    1DPPC   C4A 1412  14.645  17.829   4.726 -0.2733  0.0720  0.3237
    1DPPC   C1B 1413  14.100  17.232   5.895  0.0629  0.3110  0.0287
    1DPPC   C2B 1414  14.167  17.257   5.460  0.0036 -0.0790  0.1304
    1DPPC   C3B 1415  14.153  17.427   4.962  0.1329 -0.0407  0.0340
    1DPPC   C4B 1416  14.211  17.520   4.484  0.1727  0.0757 -0.0640
    1DPPC   NC3 1417  16.689  16.420   7.596  0.0540 -0.2269  0.0497
    1DPPC   PO4 1418  16.640  16.569   7.208  0.2501  0.1275  0.1306
    1DPPC   GL1 1419  16.498  16.574   6.809  0.0314  0.0005  0.1653
    1DPPC   GL2 1420  16.233  16.551   6.613 -0.0556 -0.1961 -0.1686
    1DPPC   C1A 1421  16.561  16.438   6.294  0.1446 -0.1003  0.3818
    1DPPC   C2A 1422  16.555  16.357   5.806 -0.0147 -0.0848  0.0045
    1DPPC   C3A 1423  16.558  16.357   5.318  0.0388  0.0680  0.0175
    1DPPC   C4A 1424  16.507  16.593   4.897 -0.1527 -0.1427  0.0183
    1DPPC   C1B 1425  16.141  16.667   6.134  0.2955  0.1914 -0.1846
    1DPPC   C2B 1426  16.129  16.671   5.663  0.1159  0.1053  0.1441
    1DPPC   C3B 1427  16.097  16.720   5.164 -0.1099  0.0751  0.0984
    1DPPC   C4B 1428  16.036  16.622   4.732 -0.2119 -0.2438  0.2167
    1DPPC   NC3 1429  11.558  15.647   7.063 -0.1066  0.2085 -0.1575
    1DPPC   PO4 1430  11.576  15.215   7.087  0.0391 -0.2531  0.0073
    1DPPC   GL1 1431  11.408  14.864   6.862  0.1170 -0.1688 -0.0610
    1DPPC   GL2 1432  11.177  14.774   6.791  0.6397 -0.0062 -0.3332
    1DPPC   C1A 1433  11.544  14.719   6.455  0.2414  0.1609 -0.0215
    1DPPC   C2A 1434  11.581  14.550   6.054  0.2630 -0.0372  0.0103
    1DPPC   C3A 1435  11.392  14.548   5.744 -0.0576 -0.3161  0.0011
    1DPPC   C4A 1436  11.540  14.429   5.399  0.1000 -0.0728  0.1572
    1DPPC   C1B 1437  11.073  14.603   6.359 -0.0134  0.2014  0.2705
    1DPPC   C2B 1438  10.729  14.346   6.044 -0.4898  0.1795 -0.4086
    1DPPC   C3B 1439  10.643  14.208   5.682  0.1566  0.0996 -0.1055
    1DPPC   C4B 1440  10.824  14.017   5.336 -0.1606  0.1796 -0.2011
    1DPPC   NC3 1441  13.432  17.972   6.956  0.3605 -0.1706  0.0301
    1DPPC   PO4 1442  13.058  17.678   6.797  0.0163 -0.0956  0.1014
    1DPPC   GL1 1443  13.023  17.316   6.555  0.1458  0.1191  0.4967
    1DPPC   GL2 1444  13.202  17.053   6.513  0.0256  0.0009 -0.0189
    1DPPC   C1A 1445  12.658  17.277   6.194 -0.0122  0.0127  0.1740
    1DPPC   C2A 1446  12.759  17.071   5.784 -0.0837 -0.1025 -0.0666
    1DPPC   C3A 1447  12.759  17.087   5.308  0.0338 -0.2323  0.0821
    1DPPC   C4A 1448  12.663  16.989   4.871  0.0208 -0.1977  0.1112
    1DPPC   C1B 1449  13.158  17.266   6.068  0.0312  0.0705 -0.0017
    1DPPC   C2B 1450  13.257  17.185   5.618 -0.1263 -0.0268 -0.2117
    1DPPC   C3B 1451  13.265  17.325   5.212 -0.0070  0.0081  0.0874
    1DPPC   C4B 1452  13.187  17.337   4.849  0.2410 -0.1340 -0.0285
    1DPPC   NC3 1453  12.022  12.381   7.732  0.0037  0.1166  0.2414
    1DPPC   PO4 1454  11.776  12.089   7.564 -0.0342  0.2150 -0.2337
    1DPPC   GL1 1455  11.703  11.881   7.188 -0.1310  0.1535  0.3583
    1DPPC   GL2 1456  11.977  11.926   7.060  0.1269  0.0455 -0.1988
    1DPPC   C1A 1457  11.629  11.669   6.799 -0.0811  0.1591  0.0491
    1DPPC   C2A 1458  11.458  11.620   6.371  0.1598  0.2863 -0.1808
    1DPPC   C3A 1459  11.292  11.754   6.037 -0.0803 -0.1519 -0.1528
    1DPPC   C4A 1460  11.097  12.094   5.861  0.1416 -0.1480 -0.1185
    1DPPC   C1B 1461  12.097  11.807   6.629  0.0107 -0.0422 -0.1042
    1DPPC   C2B 1462  12.001  11.628   6.232 -0.2856  0.0359 -0.0186
    1DPPC   C3B 1463  11.709  11.538   5.873 -0.0231  0.0717 -0.2852
    1DPPC   C4B 1464  11.464  11.262   5.802  0.2696 -0.0112  0.1133
    1DPPC   NC3 1465   4.236   4.141   6.828 -0.0817 -0.4373  0.1620
    1DPPC   PO4 1466   4.564   3.933   6.953 -0.2213 -0.2318 -0.1836
    1DPPC   GL1 1467   4.826   3.760   6.658 -0.0351 -0.1242  0.1538
    1DPPC   GL2 1468   5.065   3.977   6.743 -0.3239  0.1569  0.3327
    1DPPC   C1A 1469   4.822   3.584   6.243  0.2316  0.0068 -0.0788
    1DPPC   C2A 1470   5.003   3.350   5.895  0.2563 -0.1929  0.0924
    1DPPC   C3A 1471   5.111   3.317   5.451 -0.3009 -0.0794  0.1073
    1DPPC   C4A 1472   5.192   3.106   5.116 -0.1448 -0.0533 -0.1193
    1DPPC   C1B 1473   5.305   3.726   6.371 -0.2358  0.1727 -0.2198
    1DPPC   C2B 1474   5.492   3.511   6.004 -0.2776 -0.0159  0.1302
    1DPPC   C3B 1475   5.415   3.733   5.617  0.0434  0.1244  0.0109
    1DPPC   C4B 1476   5.465   3.588   5.200  0.3943 -0.2348  0.2093
    1DPPC   NC3 1477  20.704  13.083   6.592  0.0607 -0.0913  0.0078
    1DPPC   PO4 1478  20.450  13.456   6.470 -0.1201 -0.1188 -0.3618
    1DPPC   GL1 1479  20.555  13.597   6.095  0.0050  0.1165 -0.2671
    1DPPC   GL2 1480  20.782  13.650   6.051  0.1983  0.1676 -0.2388
    1DPPC   C1A 1481  20.279  13.686   5.697 -0.5451 -0.1399 -0.0883
    1DPPC   C2A 1482  20.169  13.687   5.233  0.1041 -0.3316  0.1924
    1DPPC   C3A 1483  20.143  13.553   4.778 -0.0453  0.1105  0.1636
    1DPPC   C4A 1484  20.083  13.378   4.369  0.2395  0.1191 -0.0728
    1DPPC   C1B 1485  20.804  13.555   5.647 -0.3777  0.0386  0.2132
    1DPPC   C2B 1486  20.705  13.600   5.216  0.2146 -0.1342  0.0548
    1DPPC   C3B 1487  20.777  13.619   4.756 -0.2103 -0.0752 -0.1693
    1DPPC   C4B 1488  20.825  13.370   4.308  0.0779  0.0378  0.1468
    1DPPC   NC3 1489  12.054  21.149   7.016 -0.2123  0.1660  0.0359
    1DPPC   PO4 1490  12.164  21.410   6.567 -0.4426  0.0185  0.3020
    1DPPC   GL1 1491  12.322  21.257   6.236  0.0053 -0.3057 -0.2040
    1DPPC   GL2 1492  12.025  21.237   6.062  0.0984  0.2643  0.0173
    1DPPC   C1A 1493  12.461  21.120   5.862  0.1950 -0.3237  0.0692
    1DPPC   C2A 1494  12.685  21.008   5.470  0.3254 -0.2005 -0.0920
    1DPPC   C3A 1495  12.716  20.869   5.032  0.3429 -0.0533 -0.3262
    1DPPC   C4A 1496  12.452  20.586   4.699 -0.0759  0.1199  0.0901
    1DPPC   C1B 1497  11.965  21.310   5.661 -0.3042  0.0321  0.1381
    1DPPC   C2B 1498  11.911  21.512   5.217 -0.0945 -0.0578 -0.0276
    1DPPC   C3B 1499  12.162  21.380   4.806  0.0703  0.1920  0.0066
    1DPPC   C4B 1500  12.150  21.460   4.401  0.1404  0.0045 -0.0286
    1DPPC   NC3 1501   8.707  12.031   7.843 -0.1476  0.2316  0.0138
    1DPPC   PO4 1502   8.587  12.271   7.417 -0.0143  0.1778  0.1247
    1DPPC   GL1 1503   8.581  12.110   6.993 -0.1813 -0.2200 -0.3520
    1DPPC   GL2 1504   8.352  12.183   6.821 -0.2283 -0.0287  0.4118
    1DPPC   C1A 1505   8.933  12.174   6.669 -0.1431 -0.3170 -0.1274
    1DPPC   C2A 1506   9.000  12.099   6.185 -0.1644 -0.1654 -0.0243
    1DPPC   C3A 1507   9.183  11.645   6.007  0.0244  0.3670  0.0958
    1DPPC   C4A 1508   9.195  11.245   5.873  0.0329  0.0762  0.4021
    1DPPC   C1B 1509   8.513  11.998   6.415 -0.0370 -0.0007  0.0583
    1DPPC   C2B 1510   8.390  11.944   6.015 -0.0591 -0.1700 -0.0855
    1DPPC   C3B 1511   8.712  11.938   5.850  0.1061  0.1022 -0.1769
    1DPPC   C4B 1512   8.910  11.544   5.585 -0.1372 -0.0751 -0.1301
    1DPPC   NC3 1513   3.238  16.201   5.996 -0.2102 -0.0904 -0.1710
    1DPPC   PO4 1514   2.924  16.354   5.652 -0.3047 -0.1329 -0.2088
    1DPPC   GL1 1515   2.909  15.955   5.399  0.1144  0.1017 -0.1398
    1DPPC   GL2 1516   2.701  15.580   5.503 -0.1818 -0.0526 -0.3390
    1DPPC   C1A 1517   3.136  15.681   5.095 -0.0693 -0.1331 -0.0751
    1DPPC   C2A 1518   3.222  15.700   4.589 -0.1046  0.0590 -0.0685
    1DPPC   C3A 1519   3.158  15.813   4.118  0.0542 -0.0314 -0.1780
    1DPPC   C4A 1520   2.947  15.915   3.728  0.1588  0.1311  0.2037
    1DPPC   C1B 1521   2.665  15.618   5.073  0.0885 -0.1012 -0.0079
    1DPPC   C2B 1522   2.755  15.442   4.621 -0.0096  0.0128 -0.0919
    1DPPC   C3B 1523   3.073  15.295   4.266 -0.1781 -0.1219  0.4036
    1DPPC   C4B 1524   3.550  15.244   4.335 -0.1374  0.0010 -0.0249
    1DPPC   NC3 1525  18.601   8.561   7.057 -0.5198  0.0379  0.0814
    1DPPC   PO4 1526  18.093   8.341   6.984 -0.0241 -0.3136 -0.1680
    1DPPC   GL1 1527  18.136   8.409   6.547 -0.2713 -0.0395  0.0959
    1DPPC   GL2 1528  18.530   8.562   6.483 -0.1915 -0.0739  0.0183
    1DPPC   C1A 1529  17.971   8.432   6.110 -0.4302 -0.0316 -0.2352
    1DPPC   C2A 1530  18.082   8.461   5.745  0.0341 -0.1629  0.4284
    1DPPC   C3A 1531  18.287   8.391   5.308 -0.1195 -0.2304  0.0530
    1DPPC   C4A 1532  18.640   8.428   5.023 -0.0306 -0.0617  0.4115
    1DPPC   C1B 1533  18.567   8.286   6.166  0.1251 -0.3256  0.6768
    1DPPC   C2B 1534  18.511   8.204   5.758  0.1422  0.4089  0.1973
    1DPPC   C3B 1535  18.589   8.034   5.319 -0.0480  0.3188 -0.0146
    1DPPC   C4B 1536  18.891   7.921   5.023 -0.1575 -0.2152 -0.2097
    1DPPC   NC3 1537  17.106  18.129   6.563  0.2689  0.0026 -0.0366
    1DPPC   PO4 1538  17.412  17.787   6.674 -0.0156  0.1109  0.0501
    1DPPC   GL1 1539  17.581  18.113   6.317  0.1455 -0.0441  0.0593
    1DPPC   GL2 1540  17.258  18.259   6.066  0.3158 -0.0576 -0.0964
    1DPPC   C1A 1541  17.615  17.921   5.937  0.3015  0.1333  0.0987
    1DPPC   C2A 1542  17.756  17.975   5.550  0.3705  0.0594  0.2484
    1DPPC   C3A 1543  17.764  18.106   5.051  0.1216  0.2455  0.1848
    1DPPC   C4A 1544  17.717  17.879   4.655  0.0702 -0.0156 -0.1705
    1DPPC   C1B 1545  17.558  18.433   5.788 -0.0986 -0.2902  0.0290
    1DPPC   C2B 1546  17.765  18.511   5.373 -0.1588 -0.0513 -0.0783
    1DPPC   C3B 1547  17.734  18.590   5.006 -0.1291  0.0641  0.2061
    1DPPC   C4B 1548  17.800  18.589   4.564  0.0912  0.2606 -0.0433
    1DPPC   NC3 1549  19.668   7.661   7.069 -0.2305 -0.0053 -0.0021
    1DPPC   PO4 1550  19.541   7.490   7.449 -0.2392  0.0294  0.1248
    1DPPC   GL1 1551  19.619   7.118   7.040 -0.1203 -0.2307  0.2345
    1DPPC   GL2 1552  19.941   7.177   6.886 -0.2423  0.1700 -0.1687
    1DPPC   C1A 1553  19.616   7.013   6.512 -0.2421  0.3375 -0.2720
    1DPPC   C2A 1554  19.561   7.283   6.138  0.0503 -0.0264  0.3504
    1DPPC   C3A 1555  19.428   7.301   5.737 -0.0841  0.0005  0.0504
    1DPPC   C4A 1556  19.345   6.910   5.374  0.3286 -0.2205 -0.2517
    1DPPC   C1B 1557  20.051   7.252   6.452  0.1055  0.1270 -0.0660
    1DPPC   C2B 1558  19.997   7.105   6.016 -0.0299  0.0390 -0.1638
    1DPPC   C3B 1559  20.109   7.281   5.543 -0.1759  0.3285 -0.1317
    1DPPC   C4B 1560  20.190   7.443   5.142  0.2153 -0.4171  0.2571
    1DPPC   NC3 1561  15.453  20.133   7.026 -0.0735  0.2657 -0.4702
    1DPPC   PO4 1562  14.956  20.039   7.107 -0.1488 -0.1766 -0.0333
    1DPPC   GL1 1563  15.244  19.967   6.612  0.0599  0.2721 -0.0152
    1DPPC   GL2 1564  15.546  20.058   6.505 -0.0439 -0.3018  0.0525
    1DPPC   C1A 1565  14.908  19.846   6.198 -0.0739 -0.1157  0.0928
    1DPPC   C2A 1566  14.932  19.748   5.735  0.0287  0.0363 -0.0004
    1DPPC   C3A 1567  14.772  19.691   5.308 -0.0381  0.1123 -0.0348
    1DPPC   C4A 1568  14.647  19.749   4.854 -0.0232 -0.0259  0.0314
    1DPPC   C1B 1569  15.413  20.088   6.088 -0.0980  0.3020 -0.1875
    1DPPC   C2B 1570  15.328  20.070   5.666  0.0547 -0.0678 -0.3353
    1DPPC   C3B 1571  15.241  19.809   5.272 -0.0570 -0.1379 -0.1084
    1DPPC   C4B 1572  15.142  19.702   4.841 -0.1318 -0.2087 -0.2964
    1DPPC   NC3 1573  11.216   9.132   7.982 -0.1594  0.0226  0.1269
    1DPPC   PO4 1574  10.887   8.813   7.657  0.1362  0.1024  0.3698
    1DPPC   GL1 1575  11.066   8.713   7.186  0.0263 -0.1418  0.0746
    1DPPC   GL2 1576  11.010   8.942   7.061 -0.0981  0.1664 -0.0505
    1DPPC   C1A 1577  11.208   8.422   6.800  0.1132  0.1036 -0.0875
    1DPPC   C2A 1578  11.353   8.489   6.414  0.1744 -0.0967  0.0085
    1DPPC   C3A 1579  11.546   8.263   6.133 -0.2734 -0.0481  0.1573
    1DPPC   C4A 1580  11.674   8.014   5.894  0.2223 -0.3217 -0.2703
    1DPPC   C1B 1581  11.144   8.974   6.650 -0.2448 -0.1478  0.2419
    1DPPC   C2B 1582  11.082   8.892   6.281  0.1037 -0.0330 -0.1046
    1DPPC   C3B 1583  11.124   8.613   5.939 -0.1376  0.3900 -0.3042
    1DPPC   C4B 1584  11.301   8.291   5.700  0.0437 -0.2654 -0.0359
    1DPPC   NC3 1585   9.325  16.145   6.731 -0.2393 -0.1039 -0.1328
    1DPPC   PO4 1586   8.980  16.344   6.709  0.2502 -0.2132 -0.0740
    1DPPC   GL1 1587   9.204  16.322   6.310  0.1986 -0.1841 -0.0701
    1DPPC   GL2 1588   8.960  16.410   6.210 -0.2576 -0.2657 -0.3226
    1DPPC   C1A 1589   9.409  16.076   6.063  0.2440  0.3888 -0.1003
    1DPPC   C2A 1590   9.441  15.950   5.612 -0.1381 -0.0682 -0.1952
    1DPPC   C3A 1591   9.245  15.861   5.130 -0.1155  0.3380  0.0916
    1DPPC   C4A 1592   8.939  15.799   4.827  0.1840  0.0757 -0.0867
    1DPPC   C1B 1593   8.891  16.570   5.871  0.3713  0.3133 -0.1805
    1DPPC   C2B 1594   8.824  16.484   5.496  0.0013  0.3369  0.1306
    1DPPC   C3B 1595   8.842  16.404   5.050 -0.3190 -0.0172 -0.3054
    1DPPC   C4B 1596   8.618  16.187   4.773 -0.4173  0.2176 -0.1615
    1DPPC   NC3 1597  17.616  13.545   6.609  0.0231 -0.1189 -0.2472
    1DPPC   PO4 1598  17.431  13.921   6.571 -0.1442 -0.2747  0.1121
    1DPPC   GL1 1599  17.322  13.637   6.249  0.2106  0.1834  0.1330
    1DPPC   GL2 1600  17.307  13.324   6.237  0.1605  0.0662 -0.1942
    1DPPC   C1A 1601  17.487  13.649   5.776 -0.2635  0.1432 -0.1362
    1DPPC   C2A 1602  17.427  13.430   5.535  0.2145 -0.1190  0.0237
    1DPPC   C3A 1603  17.421  13.351   5.149  0.0217  0.0903  0.0813
    1DPPC   C4A 1604  17.208  13.244   4.726  0.1200  0.1985  0.2113
    1DPPC   C1B 1605  17.154  13.111   5.823  0.2961 -0.1355 -0.0822
    1DPPC   C2B 1606  17.018  13.148   5.387  0.2054 -0.0512  0.1021
    1DPPC   C3B 1607  16.925  12.986   5.038 -0.0767  0.2398 -0.2115
    1DPPC   C4B 1608  16.696  12.861   4.647  0.1266  0.2208  0.1443
    1DPPC   NC3 1609   9.672  18.826   6.549 -0.0469 -0.2701 -0.3049
    1DPPC   PO4 1610   9.608  18.396   6.528 -0.0669 -0.0778  0.0415
    1DPPC   GL1 1611   9.888  18.430   6.192  0.2501  0.1392  0.2077
    1DPPC   GL2 1612  10.165  18.329   6.185  0.2465  0.1589  0.0323
    1DPPC   C1A 1613   9.788  18.530   5.800  0.0700  0.0355  0.3351
    1DPPC   C2A 1614   9.727  18.614   5.346  0.0752  0.0253 -0.2071
    1DPPC   C3A 1615   9.604  18.354   5.066  0.1413  0.0254  0.0736
    1DPPC   C4A 1616   9.419  18.281   4.656 -0.2074  0.1557  0.1906
    1DPPC   C1B 1617  10.201  18.274   5.770 -0.0924  0.0661 -0.0542
    1DPPC   C2B 1618  10.053  18.185   5.332 -0.1769 -0.1450 -0.1789
    1DPPC   C3B 1619  10.073  18.150   4.935 -0.4133 -0.0800 -0.2989
    1DPPC   C4B 1620  10.150  18.153   4.422 -0.0327  0.0131  0.0930
    1DPPC   NC3 1621   9.589  20.713   6.248  0.2466 -0.1241 -0.2214
    1DPPC   PO4 1622   9.513  21.086   6.457 -0.1346 -0.2496  0.2677
    1DPPC   GL1 1623   9.570  21.248   6.110  0.0175 -0.0149  0.1897
    1DPPC   GL2 1624   9.705  20.980   5.858 -0.1490  0.0983 -0.2884
    1DPPC   C1A 1625   9.530  21.465   5.798  0.0243 -0.1882 -0.1533
    1DPPC   C2A 1626   9.451  21.390   5.357 -0.1504  0.0195 -0.4218
    1DPPC   C3A 1627   9.610  21.162   4.961  0.2529  0.1317  0.0582
    1DPPC   C4A 1628   9.596  20.989   4.603 -0.0313 -0.0310 -0.0100
    1DPPC   C1B 1629   9.897  20.879   5.343  0.0696  0.0892  0.1088
    1DPPC   C2B 1630   9.984  20.812   4.866  0.3110  0.1148 -0.1567
    1DPPC   C3B 1631  10.125  20.736   4.509  0.0781  0.0133  0.0130
    1DPPC   C4B 1632  10.323  20.988   4.134  0.0860 -0.0324  0.0673
    1DPPC   NC3 1633  19.902  21.062   6.437  0.0057  0.1216  0.0773
    1DPPC   PO4 1634  19.601  21.444   6.428  0.2731  0.0267  0.0319
    1DPPC   GL1 1635  19.792  21.386   6.010 -0.1453 -0.2460  0.2270
    1DPPC   GL2 1636  19.796  21.575   5.747  0.1628  0.3017 -0.1349
    1DPPC   C1A 1637  19.684  21.106   5.572  0.0319 -0.1568 -0.1695
    1DPPC   C2A 1638  19.489  21.193   5.172 -0.0983  0.2870  0.0503
    1DPPC   C3A 1639  19.217  21.142   4.864 -0.4349 -0.2077  0.0585
    1DPPC   C4A 1640  19.123  20.991   4.415 -0.2890 -0.2898 -0.1185
    1DPPC   C1B 1641  19.633  21.607   5.345  0.1200 -0.0102 -0.0030
    1DPPC   C2B 1642  19.464  21.658   4.929 -0.0304 -0.0908  0.0582
    1DPPC   C3B 1643  19.367  21.840   4.582 -0.1365 -0.1192 -0.0137
    1DPPC   C4B 1644  19.199  21.925   4.274  0.1392 -0.0799 -0.2329
    1DPPC   NC3 1645  19.013  13.433   6.573  0.0456  0.0520  0.1730
    1DPPC   PO4 1646  19.052  13.812   6.752 -0.0420 -0.0380  0.4588
    1DPPC   GL1 1647  19.160  13.972   6.359 -0.0487  0.1432 -0.1342
    1DPPC   GL2 1648  18.894  13.983   6.262  0.1618  0.0363 -0.0644
    1DPPC   C1A 1649  19.307  13.716   6.013 -0.1507 -0.2392  0.0318
    1DPPC   C2A 1650  19.347  13.617   5.627  0.0556  0.1257 -0.1851
    1DPPC   C3A 1651  19.257  13.596   5.203 -0.0267 -0.0933  0.0069
    1DPPC   C4A 1652  19.223  13.463   4.848  0.1328 -0.1694 -0.1502
    1DPPC   C1B 1653  18.600  13.952   5.978 -0.3357  0.0983  0.1247
    1DPPC   C2B 1654  18.469  13.862   5.611 -0.0388 -0.1453  0.0670
    1DPPC   C3B 1655  18.493  13.879   5.188 -0.1798  0.2355  0.0489
    1DPPC   C4B 1656  18.326  13.882   4.799 -0.0102 -0.1416  0.1563
    1DPPC   NC3 1657  18.617  10.646   6.495 -0.1130 -0.1305  0.0265
    1DPPC   PO4 1658  18.232  10.931   6.333 -0.0929 -0.0970  0.1913
    1DPPC   GL1 1659  18.457  10.753   5.950  0.2636 -0.2582  0.2514
    1DPPC   GL2 1660  18.288  10.409   6.164  0.0937 -0.0213  0.0645
    1DPPC   C1A 1661  18.483  10.656   5.616  0.1695 -0.0470  0.1953
    1DPPC   C2A 1662  18.494  10.567   5.229  0.0444  0.0175 -0.1335
    1DPPC   C3A 1663  18.645  10.427   4.762 -0.0115  0.1340 -0.0754
    1DPPC   C4A 1664  19.076  10.488   4.403 -0.0035 -0.3934 -0.0881
    1DPPC   C1B 1665  18.155  10.257   5.782  0.2696  0.2930 -0.1559
    1DPPC   C2B 1666  18.218  10.136   5.386 -0.0036  0.1435  0.0240
    1DPPC   C3B 1667  18.190  10.136   4.939  0.2789 -0.1286  0.2537
    1DPPC   C4B 1668  18.257  10.097   4.482 -0.0006  0.2343  0.2516
    1DPPC   NC3 1669   9.375  13.144   7.302  0.0623  0.0352  0.3199
    1DPPC   PO4 1670   9.280  13.392   7.010  0.2826 -0.1885 -0.0982
    1DPPC   GL1 1671   9.321  13.122   6.754  0.3936  0.1441  0.2430
    1DPPC   GL2 1672   9.206  12.909   6.865  0.0370  0.0465  0.2203
    1DPPC   C1A 1673   9.334  13.073   6.282  0.1272 -0.2975 -0.0395
    1DPPC   C2A 1674   9.160  13.074   5.890  0.3697 -0.1591 -0.3747
    1DPPC   C3A 1675   9.237  12.790   5.602 -0.1834 -0.0788 -0.0846
    1DPPC   C4A 1676   9.648  12.549   5.452 -0.3923 -0.1825  0.0298
    1DPPC   C1B 1677   9.148  12.631   6.547  0.3568 -0.1290  0.0639
    1DPPC   C2B 1678   9.252  12.521   6.127 -0.1356 -0.0111  0.1903
    1DPPC   C3B 1679   9.334  12.312   5.814 -0.4010 -0.1803 -0.1179
    1DPPC   C4B 1680   9.215  12.018   5.634 -0.2069 -0.1315  0.0764
    1DPPC   NC3 1681  10.485  19.956   6.743  0.0933  0.2613  0.0060
    1DPPC   PO4 1682  10.618  19.587   6.659 -0.1806  0.0785  0.4732
    1DPPC   GL1 1683  11.034  19.431   6.447 -0.1486  0.2047 -0.3633
    1DPPC   GL2 1684  10.861  19.483   6.231  0.1632 -0.1660  0.1506
    1DPPC   C1A 1685  11.169  19.175   6.102 -0.0053  0.0468 -0.2087
    1DPPC   C2A 1686  11.270  19.204   5.655  0.0892  0.0892 -0.1131
    1DPPC   C3A 1687  11.205  19.234   5.133  0.2926 -0.2142  0.2332
    1DPPC   C4A 1688  10.904  19.315   4.844 -0.2279 -0.1740 -0.0585
    1DPPC   C1B 1689  10.964  19.560   5.854 -0.4753 -0.0840  0.0788
    1DPPC   C2B 1690  11.184  19.654   5.420 -0.0069  0.1946  0.0669
    1DPPC   C3B 1691  11.221  19.692   5.010 -0.0968 -0.2028 -0.2157
    1DPPC   C4B 1692  11.540  19.898   4.786 -0.0157 -0.2175  0.1114
    1DPPC   NC3 1693  16.000  13.512   7.866 -0.2290 -0.2546 -0.4263
    1DPPC   PO4 1694  15.719  13.329   7.399 -0.2893 -0.0278 -0.0051
    1DPPC   GL1 1695  15.656  13.372   7.010  0.3894  0.0731 -0.1908
    1DPPC   GL2 1696  15.866  13.479   6.750  0.0519 -0.1106 -0.0404
    1DPPC   C1A 1697  15.421  13.212   6.687 -0.2639  0.3884  0.1060
    1DPPC   C2A 1698  15.352  13.239   6.217 -0.2747  0.0602 -0.2294
    1DPPC   C3A 1699  15.199  13.080   5.831  0.1630  0.1478 -0.3470
    1DPPC   C4A 1700  15.144  13.157   5.448  0.5854  0.3184 -0.0036
    1DPPC   C1B 1701  15.815  13.339   6.414 -0.3007 -0.0097  0.3945
    1DPPC   C2B 1702  15.760  13.353   5.918  0.2326 -0.2086 -0.2201
    1DPPC   C3B 1703  15.581  13.356   5.538  0.0306 -0.0099 -0.2828
    1DPPC   C4B 1704  15.557  13.289   5.061  0.0115 -0.0579 -0.0806
    1DPPC   NC3 1705  19.094  26.561   7.306 -0.2080  0.0064  0.0726
    1DPPC   PO4 1706  18.909  26.429   6.887  0.2654  0.0163 -0.0583
    1DPPC   GL1 1707  19.102  26.342   6.462 -0.0337 -0.2854  0.4082
    1DPPC   GL2 1708  18.753  26.401   6.290  0.0774  0.1972 -0.0854
    1DPPC   C1A 1709  19.361  26.159   6.043  0.0665 -0.1124 -0.2616
    1DPPC   C2A 1710  19.284  26.264   5.734  0.3548  0.5124 -0.0369
    1DPPC   C3A 1711  19.186  26.343   5.243 -0.2271 -0.2274 -0.0429
    1DPPC   C4A 1712  18.832  26.212   4.946 -0.2897  0.0091  0.0720
    1DPPC   C1B 1713  18.882  26.072   5.992  0.0859  0.0527 -0.1536
    1DPPC   C2B 1714  18.910  25.972   5.661 -0.2471  0.2535 -0.0435
    1DPPC   C3B 1715  19.094  25.872   5.332 -0.1885  0.1779  0.2528
    1DPPC   C4B 1716  18.733  25.664   5.094 -0.1636  0.0702 -0.0417
    1DPPC   NC3 1717   3.879  17.957   5.985 -0.1412  0.1225  0.0009
    1DPPC   PO4 1718   4.013  18.219   5.638  0.3974  0.4841 -0.2131
    1DPPC   GL1 1719   3.864  18.373   5.177  0.2464  0.2862  0.1549
    1DPPC   GL2 1720   4.161  18.410   5.050  0.2394  0.1044 -0.0203
    1DPPC   C1A 1721   3.816  18.419   4.685 -0.1378  0.6792  0.0396
    1DPPC   C2A 1722   3.992  18.503   4.263 -0.0316 -0.0616  0.0950
    1DPPC   C3A 1723   3.967  18.319   3.921 -0.1239 -0.2561 -0.3191
    1DPPC   C4A 1724   4.277  18.140   3.661  0.0263 -0.0119  0.1561
    1DPPC   C1B 1725   4.361  18.414   4.626  0.0131 -0.1308 -0.1443
    1DPPC   C2B 1726   4.535  18.508   4.322  0.1553 -0.0900  0.2030
    1DPPC   C3B 1727   4.418  18.539   3.943 -0.1999  0.2352  0.1231
    1DPPC   C4B 1728   4.259  18.803   3.745  0.0747 -0.3117  0.0127
    1DPPC   NC3 1729  22.358  19.766   6.380  0.1994  0.1257  0.1654
    1DPPC   PO4 1730  22.253  20.239   6.236 -0.1813 -0.1877  0.1684
    1DPPC   GL1 1731  22.285  20.303   5.819 -0.2999  0.1269  0.0367
    1DPPC   GL2 1732  22.343  20.589   5.612 -0.4307  0.2413 -0.1953
    1DPPC   C1A 1733  22.337  20.070   5.471 -0.3294  0.1483 -0.1408
    1DPPC   C2A 1734  22.257  19.704   5.386 -0.0964 -0.1344  0.1556
    1DPPC   C3A 1735  22.020  19.643   5.089  0.5001 -0.1605 -0.0174
    1DPPC   C4A 1736  21.878  19.480   4.709  0.2060  0.3490  0.0106
    1DPPC   C1B 1737  22.411  20.547   5.145  0.1095  0.0369 -0.1088
    1DPPC   C2B 1738  22.563  20.753   4.742  0.0458  0.0339 -0.0510
    1DPPC   C3B 1739  22.618  20.841   4.306 -0.0807 -0.0259 -0.0246
    1DPPC   C4B 1740  22.954  20.947   4.060  0.0107 -0.4175  0.2774
    1DPPC   NC3 1741  12.731  18.025   6.769 -0.0717 -0.1517  0.1010
    1DPPC   PO4 1742  12.249  18.031   6.829 -0.1468  0.2710  0.2711
    1DPPC   GL1 1743  12.278  18.162   6.383 -0.1708 -0.0396 -0.3333
    1DPPC   GL2 1744  12.046  18.168   6.242  0.1323 -0.0770  0.2741
    1DPPC   C1A 1745  12.581  18.302   6.056 -0.1128 -0.2725  0.0513
    1DPPC   C2A 1746  12.758  18.267   5.607  0.1372  0.1480 -0.0430
    1DPPC   C3A 1747  12.722  18.130   5.207 -0.2831 -0.1536  0.0018
    1DPPC   C4A 1748  12.572  17.958   4.807  0.0629  0.2092 -0.5730
    1DPPC   C1B 1749  12.115  18.172   5.820  0.0998 -0.1918  0.2093
    1DPPC   C2B 1750  12.118  18.144   5.414  0.2286 -0.0180  0.1109
    1DPPC   C3B 1751  12.160  18.150   5.026 -0.1596 -0.5374 -0.1103
    1DPPC   C4B 1752  12.055  18.194   4.613  0.0025 -0.1695 -0.0547
    1DPPC   NC3 1753  16.591  21.889   7.308 -0.1283 -0.3350  0.0388
    1DPPC   PO4 1754  16.523  21.609   6.849 -0.0783 -0.2116 -0.1802
    1DPPC   GL1 1755  16.682  21.766   6.455  0.1376 -0.3008  0.0149
    1DPPC   GL2 1756  17.009  21.787   6.317  0.1159 -0.2221 -0.0925
    1DPPC   C1A 1757  16.801  22.178   6.158  0.0711  0.1174  0.2867
    1DPPC   C2A 1758  16.984  22.078   5.715 -0.0648  0.0300 -0.0239
    1DPPC   C3A 1759  16.739  22.071   5.327 -0.0643 -0.1916  0.4120
    1DPPC   C4A 1760  16.663  21.868   4.987  0.3972 -0.0694  0.1657
    1DPPC   C1B 1761  16.802  21.641   5.939 -0.1213  0.0371 -0.0116
    1DPPC   C2B 1762  16.685  21.549   5.475  0.1613  0.0425  0.0207
    1DPPC   C3B 1763  16.566  21.389   5.114 -0.0896  0.0992 -0.2012
    1DPPC   C4B 1764  16.281  21.578   4.853 -0.1213  0.0494 -0.4679
    1DPPC   NC3 1765  12.755  14.704   7.008 -0.1257  0.0202  0.3821
    1DPPC   PO4 1766  13.095  14.329   7.061 -0.0673  0.2177 -0.1813
    1DPPC   GL1 1767  12.821  14.300   6.701  0.0674 -0.0560  0.0169
    1DPPC   GL2 1768  13.010  14.251   6.406  0.0172 -0.0124  0.0229
    1DPPC   C1A 1769  12.424  14.212   6.349 -0.1029 -0.0111  0.1232
    1DPPC   C2A 1770  12.341  14.082   5.929  0.0838 -0.1451  0.4096
    1DPPC   C3A 1771  12.228  13.904   5.520  0.0725 -0.3681  0.2896
    1DPPC   C4A 1772  12.115  13.682   5.138  0.3078 -0.1986  0.5566
    1DPPC   C1B 1773  12.808  14.233   6.015 -0.1318  0.0567  0.0612
    1DPPC   C2B 1774  12.768  14.009   5.587  0.1598  0.2672  0.0925
    1DPPC   C3B 1775  12.641  13.608   5.340  0.2058 -0.1861  0.3805
    1DPPC   C4B 1776  12.392  13.294   5.070 -0.0945 -0.1284 -0.0341
    1DPPC   NC3 1777  20.006  13.865   6.407  0.1496  0.1120  0.1953
    1DPPC   PO4 1778  20.049  14.299   6.263  0.1838 -0.0092  0.1925
    1DPPC   GL1 1779  20.196  14.152   5.960  0.0007 -0.0897 -0.1479
    1DPPC   GL2 1780  20.601  14.075   5.911 -0.2074 -0.2769 -0.1717
    1DPPC   C1A 1781  20.036  14.285   5.537  0.3836 -0.2726  0.2252
    1DPPC   C2A 1782  20.049  14.162   5.123 -0.1026  0.0176  0.3537
    1DPPC   C3A 1783  20.211  14.077   4.702  0.3939 -0.1446  0.1906
    1DPPC   C4A 1784  20.054  13.962   4.319  0.1075  0.4071 -0.1758
    1DPPC   C1B 1785  20.576  14.031   5.436  0.1693 -0.4572 -0.0897
    1DPPC   C2B 1786  20.629  14.022   4.977 -0.1397  0.1364  0.0128
    1DPPC   C3B 1787  20.890  14.061   4.613  0.4632 -0.2078  0.2418
    1DPPC   C4B 1788  21.100  13.971   4.295  0.1292  0.0108 -0.0262
    1DPPC   NC3 1789  23.011  13.300   6.259  0.1113 -0.3393  0.0111
    1DPPC   PO4 1790  23.092  13.702   6.146 -0.2348  0.0871 -0.0377
    1DPPC   GL1 1791  23.012  13.729   5.711  0.1623  0.0398  0.0617
    1DPPC   GL2 1792  23.293  13.848   5.592 -0.0265  0.1154 -0.2040
    1DPPC   C1A 1793  22.933  13.904   5.237  0.0057 -0.1157 -0.1437
    1DPPC   C2A 1794  22.730  13.951   4.863 -0.1756 -0.2758 -0.0239
    1DPPC   C3A 1795  22.888  13.651   4.547 -0.2066  0.3017 -0.1556
    1DPPC   C4A 1796  22.701  13.304   4.424  0.0420 -0.1380 -0.1961
    1DPPC   C1B 1797  23.464  13.804   5.162  0.1975 -0.1541 -0.4042
    1DPPC   C2B 1798  23.288  13.834   4.822 -0.2720 -0.2154  0.0011
    1DPPC   C3B 1799  23.298  13.885   4.386 -0.0193 -0.2185  0.0100
    1DPPC   C4B 1800  23.364  13.766   4.053  0.1421 -0.4039  0.1981
    1DPPC   NC3 1801   9.765  13.161   6.976 -0.1574  0.2768  0.0515
    1DPPC   PO4 1802   9.737  13.574   6.763 -0.0826 -0.0835  0.0684
    1DPPC   GL1 1803   9.478  13.503   6.442  0.1592  0.0212  0.1629
    1DPPC   GL2 1804   9.215  13.653   6.575 -0.1276 -0.1508 -0.0057
    1DPPC   C1A 1805   9.358  13.513   6.037 -0.3597 -0.3346 -0.3957
    1DPPC   C2A 1806   9.300  13.521   5.624 -0.0635 -0.1141  0.0937
    1DPPC   C3A 1807   9.378  13.199   5.367  0.1808 -0.1131  0.2209
    1DPPC   C4A 1808   9.327  12.886   5.059 -0.0372  0.1422 -0.0977
    1DPPC   C1B 1809   8.974  13.405   6.319  0.2674 -0.0351  0.1526
    1DPPC   C2B 1810   8.852  13.420   5.879 -0.3022  0.0841  0.0255
    1DPPC   C3B 1811   8.555  13.445   5.532  0.1647  0.2803 -0.1221
    1DPPC   C4B 1812   8.543  13.657   5.162  0.1055  0.1393  0.2276
    1DPPC   NC3 1813  23.220  15.151   5.947  0.0195  0.2309  0.1731
    1DPPC   PO4 1814  23.043  15.515   5.819 -0.0790 -0.0598  0.0033
    1DPPC   GL1 1815  23.103  15.331   5.434  0.1958  0.0340  0.1155
    1DPPC   GL2 1816  22.787  15.310   5.349  0.1958 -0.0984 -0.0663
    1DPPC   C1A 1817  23.401  15.348   5.097 -0.0582  0.3111 -0.3064
    1DPPC   C2A 1818  23.449  15.243   4.655 -0.0469  0.1186  0.0097
    1DPPC   C3A 1819  23.333  15.274   4.161  0.1995  0.3393 -0.2373
    1DPPC   C4A 1820  23.122  15.585   3.858  0.2340  0.0418 -0.0769
    1DPPC   C1B 1821  22.877  15.387   4.906  0.2357  0.0456 -0.1015
    1DPPC   C2B 1822  22.819  15.362   4.461  0.0603  0.0459 -0.2691
    1DPPC   C3B 1823  22.696  15.669   4.171  0.2495  0.2688  0.0445
    1DPPC   C4B 1824  22.311  15.783   3.933  0.0825 -0.1960  0.0954
    1DPPC   NC3 1825  17.201  23.469   6.630 -0.2708 -0.0653 -0.3697
    1DPPC   PO4 1826  16.844  23.263   6.665 -0.0966  0.0267 -0.1786
    1DPPC   GL1 1827  16.905  23.213   6.243  0.1916  0.3266  0.2288
    1DPPC   GL2 1828  16.928  23.417   6.174  0.0961 -0.0345 -0.0495
    1DPPC   C1A 1829  17.096  22.874   6.008 -0.0458 -0.1768 -0.0927
    1DPPC   C2A 1830  17.219  22.782   5.672  0.0095 -0.1457 -0.0054
    1DPPC   C3A 1831  17.391  22.726   5.188 -0.0121 -0.1460 -0.3563
    1DPPC   C4A 1832  17.680  22.857   4.932 -0.0600  0.0014  0.3774
    1DPPC   C1B 1833  17.106  23.410   5.843 -0.1859 -0.2838 -0.0348
    1DPPC   C2B 1834  17.342  23.735   5.587 -0.1718  0.0559  0.0136
    1DPPC   C3B 1835  17.350  24.007   5.333 -0.1818 -0.0531  0.0153
    1DPPC   C4B 1836  17.541  24.106   5.041  0.0508  0.1441 -0.3762
    1DPPC   NC3 1837   8.455  14.778   6.928 -0.1220 -0.0097  0.0167
    1DPPC   PO4 1838   8.331  14.689   6.501 -0.0539  0.3100  0.2572
    1DPPC   GL1 1839   8.328  14.444   6.255  0.0829  0.0329  0.4139
    1DPPC   GL2 1840   8.608  14.255   6.279  0.0406 -0.4439  0.1311
    1DPPC   C1A 1841   8.363  14.180   5.862 -0.1453 -0.0580  0.0926
    1DPPC   C2A 1842   8.478  14.137   5.397 -0.0642 -0.1296 -0.1013
    1DPPC   C3A 1843   8.341  14.087   4.994 -0.1348  0.2193  0.0932
    1DPPC   C4A 1844   8.454  14.288   4.531  0.1257 -0.2727 -0.1803
    1DPPC   C1B 1845   8.820  14.366   5.909  0.1757  0.0707  0.0284
    1DPPC   C2B 1846   8.939  14.398   5.424 -0.0916 -0.1270  0.0282
    1DPPC   C3B 1847   8.673  14.446   5.020  0.0405  0.1748 -0.0168
    1DPPC   C4B 1848   8.551  14.778   4.679 -0.1481  0.1837  0.2692
    1DPPC   NC3 1849  11.116  10.048   7.828 -0.0412 -0.1120  0.2773
    1DPPC   PO4 1850  11.356  10.416   7.627  0.0286  0.1628 -0.0237
    1DPPC   GL1 1851  11.272  10.557   7.205  0.0495 -0.1601 -0.1379
    1DPPC   GL2 1852  11.470  10.635   7.113  0.3093 -0.1845 -0.2532
    1DPPC   C1A 1853  10.984  10.446   6.818 -0.0552  0.1402  0.0955
    1DPPC   C2A 1854  10.755  10.303   6.532 -0.0539 -0.2995 -0.1245
    1DPPC   C3A 1855  10.863  10.177   6.195  0.3877  0.2621  0.0089
    1DPPC   C4A 1856  11.010  10.253   5.746  0.2027 -0.0446 -0.1845
    1DPPC   C1B 1857  11.359  10.672   6.652  0.0485 -0.0319  0.1456
    1DPPC   C2B 1858  11.126  10.590   6.301 -0.0580 -0.0393  0.0021
    1DPPC   C3B 1859  11.280  10.665   5.878 -0.2225 -0.3398  0.0300
    1DPPC   C4B 1860  11.725  10.746   5.676 -0.0345 -0.1066  0.2389
    1DPPC   NC3 1861   1.229  14.397   5.859 -0.4003 -0.1705 -0.1283
    1DPPC   PO4 1862   1.077  14.723   5.660 -0.0060 -0.3957  0.0638
    1DPPC   GL1 1863   1.157  14.700   5.101 -0.0378  0.1889 -0.1436
    1DPPC   GL2 1864   1.446  14.662   5.079 -0.2785 -0.0482 -0.2106
    1DPPC   C1A 1865   1.202  14.523   4.707  0.2221 -0.1646  0.2203
    1DPPC   C2A 1866   1.216  14.207   4.251  0.0781  0.1202  0.3456
    1DPPC   C3A 1867   1.323  13.926   3.975  0.2674 -0.0262  0.0921
    1DPPC   C4A 1868   1.456  14.115   3.566 -0.0737  0.1247 -0.2374
    1DPPC   C1B 1869   1.664  14.666   4.859  0.3109 -0.0007 -0.1232
    1DPPC   C2B 1870   1.880  14.409   4.458  0.0242  0.0876 -0.0796
    1DPPC   C3B 1871   2.210  14.224   4.161 -0.1103  0.2436  0.3008
    1DPPC   C4B 1872   2.536  14.229   3.848 -0.0235 -0.2193 -0.0411
    1DPPC   NC3 1873  16.552  18.749   6.769 -0.1822 -0.0306  0.2216
    1DPPC   PO4 1874  16.485  19.142   6.767  0.1297  0.2780  0.0748
    1DPPC   GL1 1875  16.280  19.413   6.392 -0.0557 -0.0518  0.0932
    1DPPC   GL2 1876  16.561  19.375   6.263 -0.2567  0.3278  0.0015
    1DPPC   C1A 1877  16.272  19.660   5.989 -0.1928 -0.1314  0.0715
    1DPPC   C2A 1878  16.285  19.684   5.500  0.0036 -0.1994 -0.2023
    1DPPC   C3A 1879  16.465  19.512   5.130 -0.1842  0.0287 -0.1222
    1DPPC   C4A 1880  16.510  19.367   4.713  0.1314  0.0422 -0.1935
    1DPPC   C1B 1881  16.640  19.397   5.773  0.4759 -0.1785  0.1131
    1DPPC   C2B 1882  16.970  19.374   5.495  0.2721  0.0238  0.2659
    1DPPC   C3B 1883  16.993  19.547   5.152  0.0877  0.2797 -0.0475
    1DPPC   C4B 1884  16.876  19.717   4.782 -0.4089  0.1349  0.1938
    1DPPC   NC3 1885  11.552  20.638   6.792 -0.2281  0.0242  0.0115
    1DPPC   PO4 1886  11.122  20.604   6.607 -0.1694  0.0412 -0.1473
    1DPPC   GL1 1887  11.181  20.533   6.222  0.1629 -0.0722 -0.0660
    1DPPC   GL2 1888  10.981  20.673   5.985  0.1910  0.1026 -0.2103
    1DPPC   C1A 1889  11.439  20.460   5.855  0.0673 -0.0470  0.1873
    1DPPC   C2A 1890  11.595  20.508   5.355  0.1998 -0.2684 -0.0211
    1DPPC   C3A 1891  11.679  20.665   4.977  0.3356  0.1786 -0.1869
    1DPPC   C4A 1892  12.008  20.883   4.767  0.1184 -0.1274 -0.2489
    1DPPC   C1B 1893  10.713  20.412   5.759  0.0749 -0.2236 -0.1896
    1DPPC   C2B 1894  10.585  20.248   5.368 -0.2732  0.1746  0.4126
    1DPPC   C3B 1895  10.531  20.298   4.991 -0.0503 -0.0013 -0.1056
    1DPPC   C4B 1896  10.413  20.362   4.603 -0.0442  0.0976  0.3194
    1DPPC   NC3 1897   9.914  19.819   6.263 -0.1174  0.1454 -0.0709
    1DPPC   PO4 1898   9.748  20.162   6.456 -0.2135 -0.1561 -0.2766
    1DPPC   GL1 1899   9.875  20.398   6.015  0.0884  0.1945 -0.1590
    1DPPC   GL2 1900  10.044  20.661   6.010 -0.2591 -0.0455  0.1949
    1DPPC   C1A 1901   9.666  20.483   5.630  0.0068 -0.0393 -0.2229
    1DPPC   C2A 1902   9.598  20.092   5.274 -0.2303 -0.0587  0.0717
    1DPPC   C3A 1903   9.343  20.128   4.822  0.1083  0.2944  0.0878
    1DPPC   C4A 1904   9.158  20.250   4.528  0.2530  0.3053  0.3688
    1DPPC   C1B 1905  10.214  20.460   5.647  0.2177 -0.0886 -0.1438
    1DPPC   C2B 1906  10.137  20.488   5.218 -0.1673  0.4314 -0.1199
    1DPPC   C3B 1907  10.012  20.276   4.916 -0.0672  0.2330  0.1217
    1DPPC   C4B 1908   9.698  20.492   4.589 -0.1728  0.2474  0.0375
    1DPPC   NC3 1909  17.416   8.126   6.772  0.0727  0.0713 -0.3527
    1DPPC   PO4 1910  17.042   8.483   6.950 -0.1180  0.1446  0.2518
    1DPPC   GL1 1911  16.902   8.543   6.490  0.2309  0.1064 -0.1301
    1DPPC   GL2 1912  16.822   8.714   6.256  0.2648  0.1314 -0.0072
    1DPPC   C1A 1913  17.105   8.387   6.046  0.1074  0.0536  0.0408
    1DPPC   C2A 1914  17.054   8.395   5.542  0.0905 -0.0260  0.0472
    1DPPC   C3A 1915  16.849   8.692   5.322  0.1310  0.1249  0.0835
    1DPPC   C4A 1916  16.696   8.949   5.053  0.2074 -0.0094 -0.0691
    1DPPC   C1B 1917  16.813   8.877   5.873  0.0230 -0.2782  0.3903
    1DPPC   C2B 1918  16.981   9.152   5.516  0.0590  0.2472  0.3004
    1DPPC   C3B 1919  17.188   9.251   5.225 -0.0739  0.0561 -0.1337
    1DPPC   C4B 1920  17.400   9.107   4.930  0.2380 -0.1121 -0.0358
    1DPPC   NC3 1921   4.660  10.750   7.156 -0.0079 -0.2070  0.2532
    1DPPC   PO4 1922   4.692  10.370   6.886  0.2621 -0.0162  0.0686
    1DPPC   GL1 1923   4.846  10.337   6.420  0.0642 -0.0154 -0.2848
    1DPPC   GL2 1924   5.070  10.056   6.356 -0.0038  0.1064  0.0487
    1DPPC   C1A 1925   4.764  10.606   6.174  0.2739 -0.1268 -0.1708
    1DPPC   C2A 1926   5.180  10.767   5.986  0.2134  0.2823  0.1213
    1DPPC   C3A 1927   5.455  10.685   5.583 -0.2366 -0.0851 -0.0229
    1DPPC   C4A 1928   5.830  10.649   5.335 -0.2706 -0.1041  0.1472
    1DPPC   C1B 1929   4.812  10.052   6.012 -0.1646  0.0004 -0.0228
    1DPPC   C2B 1930   4.774   9.968   5.531  0.2711 -0.2500  0.1224
    1DPPC   C3B 1931   4.738  10.212   5.157 -0.0763 -0.1075 -0.0414
    1DPPC   C4B 1932   4.846  10.502   4.839  0.0667 -0.1530  0.0314
    1DPPC   NC3 1933  18.248  15.690   6.877  0.1113 -0.2195 -0.2582
    1DPPC   PO4 1934  18.252  16.044   6.649 -0.0069 -0.0513  0.4889
    1DPPC   GL1 1935  18.275  15.755   6.265 -0.2284 -0.1097  0.4297
    1DPPC   GL2 1936  18.343  15.891   5.998 -0.0688 -0.2901  0.3476
    1DPPC   C1A 1937  18.273  15.459   5.847 -0.1779  0.4046  0.2138
    1DPPC   C2A 1938  18.253  15.404   5.471 -0.1239 -0.1761 -0.1902
    1DPPC   C3A 1939  18.077  15.414   5.024  0.1109 -0.1085 -0.3088
    1DPPC   C4A 1940  17.718  15.381   4.764  0.1906 -0.2796 -0.0893
    1DPPC   C1B 1941  18.290  15.903   5.543  0.0374 -0.1799 -0.0891
    1DPPC   C2B 1942  18.227  15.993   5.119 -0.0097  0.0497  0.1506
    1DPPC   C3B 1943  18.013  15.827   4.736  0.0871  0.2233 -0.1959
    1DPPC   C4B 1944  17.986  15.636   4.369  0.1148  0.0483 -0.2460
    1DPPC   NC3 1945  25.752  21.990   6.449  0.1868 -0.1026  0.0500
    1DPPC   PO4 1946  25.560  21.723   6.219  0.2203  0.2203  0.2270
    1DPPC   GL1 1947  25.834  21.824   5.855 -0.1783  0.0248 -0.0623
    1DPPC   GL2 1948  25.997  22.143   5.906 -0.2198  0.3652  0.1732
    1DPPC   C1A 1949  26.079  21.840   5.509  0.2063 -0.2158  0.1270
    1DPPC   C2A 1950  26.245  21.952   5.044  0.3959 -0.0093 -0.0029
    1DPPC   C3A 1951  26.419  22.022   4.658  0.2225  0.1960 -0.1958
    1DPPC   C4A 1952  26.722  22.071   4.394  0.2612  0.2915  0.2481
    1DPPC   C1B 1953  26.371  22.137   5.765 -0.2636  0.1277 -0.1632
    1DPPC   C2B 1954  26.632  22.014   5.454  0.0019  0.3406 -0.1849
    1DPPC   C3B 1955  26.818  21.667   5.209 -0.0119 -0.0135 -0.2232
    1DPPC   C4B 1956  26.816  21.689   4.728 -0.0434  0.3216 -0.1409
    1DPPC   NC3 1957  19.879  11.878   6.724 -0.1079  0.0108 -0.0058
    1DPPC   PO4 1958  20.296  11.868   6.907  0.0322 -0.2192  0.2172
    1DPPC   GL1 1959  20.496  11.907   6.472 -0.0593  0.0297 -0.0380
    1DPPC   GL2 1960  20.282  11.739   6.402 -0.1479  0.1901 -0.0100
    1DPPC   C1A 1961  20.442  12.174   6.059 -0.2823 -0.0893 -0.3988
    1DPPC   C2A 1962  20.297  12.039   5.594 -0.0388 -0.0129  0.2170
    1DPPC   C3A 1963  20.307  11.868   5.130 -0.0161  0.2271  0.1946
    1DPPC   C4A 1964  20.340  11.780   4.720  0.1054  0.2969  0.2667
    1DPPC   C1B 1965  20.343  11.580   6.014  0.0102 -0.0085  0.1494
    1DPPC   C2B 1966  20.454  11.537   5.566  0.2241  0.0910  0.0685
    1DPPC   C3B 1967  20.619  11.408   5.114 -0.0853 -0.0713 -0.0306
    1DPPC   C4B 1968  20.626  11.192   4.759 -0.2277 -0.1417  0.0172
    1DPPC   NC3 1969  13.561  19.768   7.107  0.0507  0.0154 -0.2223
    1DPPC   PO4 1970  13.488  20.266   7.136  0.0667  0.1858 -0.0830
    1DPPC   GL1 1971  13.448  20.279   6.735 -0.2241 -0.1761  0.1210
    1DPPC   GL2 1972  13.625  20.621   6.726  0.1885 -0.0267 -0.0694
    1DPPC   C1A 1973  13.531  20.061   6.318 -0.2397  0.0277  0.0887
    1DPPC   C2A 1974  13.554  19.973   5.920 -0.2705  0.0250 -0.1164
    1DPPC   C3A 1975  13.534  19.960   5.623 -0.2021 -0.0017  0.0249
    1DPPC   C4A 1976  13.474  19.974   5.284  0.1813 -0.1212 -0.0079
    1DPPC   C1B 1977  13.393  20.551   6.323 -0.1354  0.1972 -0.2983
    1DPPC   C2B 1978  13.452  20.511   5.855 -0.0159 -0.1547  0.3356
    1DPPC   C3B 1979  13.458  20.456   5.342 -0.1002  0.1131 -0.0078
    1DPPC   C4B 1980  13.100  20.562   5.029  0.0083  0.1359  0.2576
    1DPPC   NC3 1981  16.795  20.066   7.219 -0.3475  0.0868  0.2199
    1DPPC   PO4 1982  16.641  20.514   6.931  0.2419  0.1034 -0.1094
    1DPPC   GL1 1983  16.466  20.413   6.556 -0.1253 -0.2119 -0.3102
    1DPPC   GL2 1984  16.166  20.354   6.527 -0.0691 -0.1841 -0.2285
    1DPPC   C1A 1985  16.556  20.345   6.152  0.5874  0.0151 -0.0036
    1DPPC   C2A 1986  16.397  20.106   5.732 -0.3231 -0.3407  0.0296
    1DPPC   C3A 1987  16.737  19.924   5.381  0.1039 -0.0661  0.2291
    1DPPC   C4A 1988  17.062  20.105   5.020  0.1622  0.1096 -0.0762
    1DPPC   C1B 1989  16.065  20.642   6.311 -0.3077  0.0633 -0.0348
    1DPPC   C2B 1990  16.114  20.567   5.915 -0.1400  0.5620 -0.0086
    1DPPC   C3B 1991  16.222  20.564   5.539 -0.1442 -0.2253 -0.0089
    1DPPC   C4B 1992  16.192  20.635   5.051  0.1966 -0.0869 -0.2674
    1DPPC   NC3 1993  19.162   9.883   6.537  0.0921  0.0372 -0.0028
    1DPPC   PO4 1994  19.408  10.310   6.442 -0.2627 -0.2457 -0.0756
    1DPPC   GL1 1995  19.479  10.083   6.105  0.0065  0.0758 -0.1309
    1DPPC   GL2 1996  19.481   9.755   6.146 -0.2231 -0.0099 -0.0540
    1DPPC   C1A 1997  19.602  10.157   5.730 -0.0080 -0.0139 -0.2801
    1DPPC   C2A 1998  19.681  10.113   5.342  0.1201  0.3920 -0.2235
    1DPPC   C3A 1999  19.453  10.237   5.027 -0.1372 -0.0085 -0.0581
    1DPPC   C4A 2000  19.133  10.184   4.812 -0.3450 -0.0820  0.2740
    1DPPC   C1B 2001  19.614   9.675   5.652  0.1150 -0.3239  0.0728
    1DPPC   C2B 2002  19.582   9.576   5.264  0.2762  0.1192  0.0511
    1DPPC   C3B 2003  19.639   9.279   4.831 -0.0211 -0.3000 -0.1227
    1DPPC   C4B 2004  19.518   8.790   4.692  0.1048 -0.0303 -0.1650
    1DPPC   NC3 2005   7.348  14.237   7.166 -0.0311  0.1162 -0.0347
    1DPPC   PO4 2006   7.368  14.169   6.776  0.0851 -0.2715  0.1262
    1DPPC   GL1 2007   7.266  14.115   6.437 -0.1615 -0.1878 -0.0444
    1DPPC   GL2 2008   7.535  14.152   6.322 -0.0433  0.2716 -0.0052
    1DPPC   C1A 2009   7.148  13.936   6.082  0.1246 -0.1764 -0.0006
    1DPPC   C2A 2010   7.035  13.882   5.688 -0.0149 -0.0595 -0.1041
    1DPPC   C3A 2011   7.123  13.558   5.505  0.1350  0.4471  0.0118
    1DPPC   C4A 2012   7.482  13.509   5.118 -0.1269 -0.1952  0.0534
    1DPPC   C1B 2013   7.901  14.274   5.975 -0.1914  0.0965 -0.1459
    1DPPC   C2B 2014   7.970  14.329   5.470  0.2404 -0.0076 -0.1967
    1DPPC   C3B 2015   8.223  14.586   5.145  0.0017 -0.0975 -0.0613
    1DPPC   C4B 2016   8.464  14.900   5.212  0.0693  0.1432  0.1283
    1DPPC   NC3 2017  18.807  21.713   6.498  0.0443  0.0992  0.0841
    1DPPC   PO4 2018  19.150  21.646   6.197 -0.0124 -0.1774  0.1324
    1DPPC   GL1 2019  19.349  21.808   5.786  0.2241 -0.2065  0.1473
    1DPPC   GL2 2020  19.553  21.920   6.097 -0.1366  0.1041 -0.2914
    1DPPC   C1A 2021  19.346  22.006   5.357 -0.1569 -0.2634 -0.1418
    1DPPC   C2A 2022  19.402  22.221   5.060  0.3864 -0.0417 -0.0218
    1DPPC   C3A 2023  19.319  22.613   4.969 -0.1896 -0.1130 -0.0685
    1DPPC   C4A 2024  19.590  22.961   4.750 -0.0011  0.1257 -0.1067
    1DPPC   C1B 2025  19.740  22.064   5.690  0.0428 -0.0690  0.0576
    1DPPC   C2B 2026  19.716  22.436   5.497  0.3735  0.4968 -0.0110
    1DPPC   C3B 2027  19.788  22.625   5.145  0.0369  0.2000  0.1721
    1DPPC   C4B 2028  20.029  22.775   4.757 -0.1873  0.3303  0.1021
    1DPPC   NC3 2029  10.905  17.332   6.619 -0.0265  0.1371  0.0119
    1DPPC   PO4 2030  10.820  17.807   6.593 -0.2568  0.1038 -0.2496
    1DPPC   GL1 2031  10.849  17.961   6.165  0.2833 -0.1240 -0.1437
    1DPPC   GL2 2032  10.571  18.043   6.042  0.1102 -0.0116  0.1389
    1DPPC   C1A 2033  11.032  18.162   5.838  0.1747 -0.1541 -0.3483
    1DPPC   C2A 2034  11.033  18.065   5.390 -0.3618 -0.0527 -0.2220
    1DPPC   C3A 2035  10.975  18.196   4.986  0.2134  0.0743 -0.0112
    1DPPC   C4A 2036  10.975  18.408   4.531  0.1744  0.0687  0.1626
    1DPPC   C1B 2037  10.622  18.032   5.649  0.3644  0.1961  0.1130
    1DPPC   C2B 2038  10.507  18.121   5.244  0.1561 -0.1556 -0.1627
    1DPPC   C3B 2039  10.579  17.916   4.866  0.1359 -0.0535 -0.1722
    1DPPC   C4B 2040  10.832  17.900   4.508  0.1178  0.1807  0.1689
    1DPPC   NC3 2041  17.132  13.401   6.681  0.0683 -0.0265 -0.1534
    1DPPC   PO4 2042  17.177  12.917   6.623  0.3148 -0.2702  0.0117
    1DPPC   GL1 2043  17.214  12.813   6.226  0.1162  0.1205  0.2082
    1DPPC   GL2 2044  17.162  12.491   6.227 -0.0766 -0.1945  0.0863
    1DPPC   C1A 2045  17.198  12.627   5.758 -0.2382 -0.2683  0.4898
    1DPPC   C2A 2046  17.047  12.617   5.281  0.0385  0.0036 -0.0683
    1DPPC   C3A 2047  16.850  12.437   4.911 -0.0460  0.1309 -0.2066
    1DPPC   C4A 2048  16.616  12.209   4.663  0.1378  0.1445  0.1092
    1DPPC   C1B 2049  17.247  12.165   5.989 -0.0477  0.1811  0.0947
    1DPPC   C2B 2050  17.121  12.163   5.548  0.1189  0.1147 -0.1262
    1DPPC   C3B 2051  16.905  12.018   5.256 -0.1437  0.1197 -0.0636
    1DPPC   C4B 2052  16.834  11.723   4.898 -0.0312  0.2257  0.2438
    1DPPC   NC3 2053  19.309  17.411   7.142 -0.1472  0.0834  0.1476
    1DPPC   PO4 2054  19.060  17.225   6.727 -0.1371 -0.3542 -0.0134
    1DPPC   GL1 2055  19.065  17.148   6.305 -0.0236  0.2552  0.0363
    1DPPC   GL2 2056  18.966  17.373   6.123  0.1527 -0.1451 -0.0960
    1DPPC   C1A 2057  19.433  17.111   6.043 -0.0572 -0.1661  0.2550
    1DPPC   C2A 2058  19.435  17.072   5.583  0.2412  0.0783  0.2396
    1DPPC   C3A 2059  19.457  17.152   5.094  0.1482 -0.1911 -0.0871
    1DPPC   C4A 2060  19.434  17.245   4.663 -0.2594  0.1225 -0.1574
    1DPPC   C1B 2061  18.954  17.141   5.793  0.0219  0.2643  0.1572
    1DPPC   C2B 2062  18.977  17.173   5.354 -0.2950 -0.1377 -0.1045
    1DPPC   C3B 2063  18.964  17.226   4.927  0.3064 -0.0511  0.3298
    1DPPC   C4B 2064  18.854  17.362   4.492 -0.3109 -0.0521  0.1107
    1DPPC   NC3 2065  16.307   9.639   7.289 -0.1488  0.2179  0.3266
    1DPPC   PO4 2066  16.454   9.159   7.140 -0.0119 -0.0911  0.0809
    1DPPC   GL1 2067  16.155   9.056   6.735 -0.0390 -0.1620  0.0260
    1DPPC   GL2 2068  15.966   8.858   6.856  0.2184  0.0212  0.0225
    1DPPC   C1A 2069  16.026   9.094   6.279  0.0481  0.0173 -0.0909
    1DPPC   C2A 2070  15.908   8.957   5.958  0.1827  0.0353 -0.0548
    1DPPC   C3A 2071  15.964   8.978   5.574 -0.1320 -0.1756  0.2691
    1DPPC   C4A 2072  16.082   9.145   5.165 -0.0983  0.0065 -0.1527
    1DPPC   C1B 2073  15.767   8.767   6.504 -0.1369 -0.2217 -0.0850
    1DPPC   C2B 2074  15.459   8.672   6.096  0.1777  0.1271  0.0541
    1DPPC   C3B 2075  15.291   8.537   5.692  0.2589 -0.0033 -0.1005
    1DPPC   C4B 2076  15.205   8.473   5.308 -0.0359 -0.4695 -0.1961
    1DPPC   NC3 2077  21.047  11.697   6.507  0.3943  0.0312 -0.1384
    1DPPC   PO4 2078  21.077  11.298   6.680 -0.0088  0.0141  0.0839
    1DPPC   GL1 2079  20.923  11.291   6.274 -0.2047  0.1589  0.0804
    1DPPC   GL2 2080  20.586  11.314   6.386 -0.1286  0.0296  0.2580
    1DPPC   C1A 2081  20.880  11.362   5.857 -0.1787 -0.0691  0.0757
    1DPPC   C2A 2082  20.965  11.336   5.526  0.1323 -0.1338  0.1722
    1DPPC   C3A 2083  21.111  11.323   5.086 -0.2972 -0.0639  0.1788
    1DPPC   C4A 2084  21.138  11.182   4.657 -0.0238 -0.0314  0.0661
    1DPPC   C1B 2085  20.524  11.079   6.012 -0.0185  0.1508  0.1532
    1DPPC   C2B 2086  20.496  11.030   5.567  0.1247  0.0248 -0.0529
    1DPPC   C3B 2087  20.373  10.920   5.095  0.2067 -0.2395 -0.0119
    1DPPC   C4B 2088  20.254  10.805   4.734  0.2063  0.2827 -0.3706
    1DPPC   NC3 2089  16.198   8.301   7.182  0.0680  0.2804 -0.2438
    1DPPC   PO4 2090  16.219   8.450   6.827  0.3040  0.0992  0.0992
    1DPPC   GL1 2091  16.204   8.595   6.437 -0.1256  0.2640 -0.1465
    1DPPC   GL2 2092  16.421   8.323   6.364  0.0425 -0.2956 -0.1228
    1DPPC   C1A 2093  16.377   8.798   5.988  0.0737 -0.2481  0.1656
    1DPPC   C2A 2094  16.450   8.788   5.546  0.2355  0.0915  0.0911
    1DPPC   C3A 2095  16.213   8.654   5.201 -0.0077 -0.0839 -0.2221
    1DPPC   C4A 2096  16.238   8.755   4.841 -0.0458 -0.0715  0.0550
    1DPPC   C1B 2097  16.593   8.370   5.948 -0.0352 -0.1604 -0.0213
    1DPPC   C2B 2098  16.556   8.341   5.511 -0.0402  0.1720 -0.1346
    1DPPC   C3B 2099  16.773   8.026   5.215  0.2601  0.0395  0.0105
    1DPPC   C4B 2100  17.114   8.068   5.048  0.1258 -0.0927  0.1040
    1DPPC   NC3 2101  19.868  10.278   6.799  0.0055  0.0076 -0.0690
    1DPPC   PO4 2102  19.615   9.913   6.694  0.2762 -0.0333 -0.0234
    1DPPC   GL1 2103  19.947  10.064   6.278  0.1414 -0.1402 -0.2524
    1DPPC   GL2 2104  19.956  10.417   6.287 -0.2360 -0.1093 -0.1710
    1DPPC   C1A 2105  19.947   9.791   5.948 -0.2188  0.3278  0.1524
    1DPPC   C2A 2106  20.099   9.804   5.549 -0.0771 -0.1644 -0.3162
    1DPPC   C3A 2107  20.086   9.598   5.220  0.0923 -0.1069  0.0920
    1DPPC   C4A 2108  19.834   9.773   4.855 -0.1526  0.3981 -0.1262
    1DPPC   C1B 2109  20.109  10.284   5.848  0.2183  0.1519 -0.0281
    1DPPC   C2B 2110  20.170  10.258   5.411  0.1112  0.4377 -0.2983
    1DPPC   C3B 2111  20.260  10.067   5.070  0.1891  0.0493  0.2124
    1DPPC   C4B 2112  20.171   9.945   4.576 -0.1129  0.0173  0.0498
    1DPPC   NC3 2113  23.671  27.886   6.966 -0.0563  0.4027  0.0054
    1DPPC   PO4 2114  24.017  27.798   6.742 -0.0777  0.0984 -0.1348
    1DPPC   GL1 2115  23.991  27.574   6.403 -0.0719 -0.1290  0.0658
    1DPPC   GL2 2116  23.725  27.250   6.457  0.4742  0.0512 -0.0229
    1DPPC   C1A 2117  24.260  27.398   6.073  0.2292  0.1913 -0.2295
    1DPPC   C2A 2118  24.455  27.365   5.690 -0.1559 -0.1948 -0.2465
    1DPPC   C3A 2119  24.449  27.767   5.291  0.0795  0.1179  0.1119
    1DPPC   C4A 2120  24.796  27.916   4.934 -0.0739  0.2181 -0.2427
    1DPPC   C1B 2121  23.508  27.339   6.068 -0.4074 -0.1129  0.1648
    1DPPC   C2B 2122  23.690  27.354   5.634  0.2238  0.3152  0.4317
    1DPPC   C3B 2123  24.043  27.266   5.345 -0.2570 -0.1091  0.0834
    1DPPC   C4B 2124  24.254  27.352   5.017  0.1572 -0.1878  0.1181
    1DPPC   NC3 2125  17.883  16.445   6.685  0.0682  0.1653  0.0052
    1DPPC   PO4 2126  18.291  16.654   6.583  0.2957 -0.0063 -0.2614
    1DPPC   GL1 2127  18.324  16.323   6.222  0.4186  0.1122 -0.0697
    1DPPC   GL2 2128  17.936  16.304   6.227 -0.1942 -0.1815 -0.0543
    1DPPC   C1A 2129  18.355  16.354   5.843 -0.1401  0.1059 -0.2369
    1DPPC   C2A 2130  18.307  16.409   5.418 -0.1371 -0.1597  0.1192
    1DPPC   C3A 2131  18.189  16.471   5.072 -0.0167 -0.1192  0.1178
    1DPPC   C4A 2132  18.211  16.693   4.628  0.2068  0.0916 -0.0905
    1DPPC   C1B 2133  17.895  16.226   5.769  0.1203 -0.0642  0.0478
    1DPPC   C2B 2134  17.810  16.268   5.346 -0.0059 -0.0026  0.2220
    1DPPC   C3B 2135  17.843  16.247   4.880  0.1830 -0.1052  0.3832
    1DPPC   C4B 2136  17.915  16.282   4.413 -0.0255  0.1220 -0.2661
    1DPPC   NC3 2137  14.926  22.006   7.184  0.4332  0.0210  0.1416
    1DPPC   PO4 2138  14.865  22.049   6.875  0.1206  0.1363 -0.1818
    1DPPC   GL1 2139  14.861  21.851   6.502  0.0384  0.0754 -0.0139
    1DPPC   GL2 2140  15.169  22.000   6.485 -0.2021  0.0743  0.2590
    1DPPC   C1A 2141  14.809  21.874   6.054 -0.3181 -0.0110  0.0690
    1DPPC   C2A 2142  14.768  21.999   5.634 -0.0825  0.1924 -0.0744
    1DPPC   C3A 2143  14.774  22.050   5.169 -0.1905 -0.2546  0.2689
    1DPPC   C4A 2144  14.847  22.175   4.728 -0.2141  0.0336 -0.0788
    1DPPC   C1B 2145  15.323  21.959   6.189  0.0495 -0.0937  0.1986
    1DPPC   C2B 2146  15.208  21.809   5.750  0.0937 -0.1134 -0.0177
    1DPPC   C3B 2147  15.115  21.661   5.294 -0.2262  0.1909 -0.1377
    1DPPC   C4B 2148  14.973  21.676   4.940  0.0694  0.2337  0.3537
    1DPPC   NC3 2149  12.962  14.055   7.468 -0.0928  0.3143 -0.1483
    1DPPC   PO4 2150  12.544  14.035   7.181 -0.1315  0.0150 -0.0449
    1DPPC   GL1 2151  12.882  13.775   6.834 -0.0669  0.1551  0.0124
    1DPPC   GL2 2152  12.700  13.854   6.575  0.0065  0.0819  0.1080
    1DPPC   C1A 2153  13.142  13.547   6.428  0.0217 -0.0874 -0.1560
    1DPPC   C2A 2154  13.187  13.477   5.978 -0.1064 -0.0974 -0.1960
    1DPPC   C3A 2155  13.104  13.408   5.517 -0.0212  0.0834  0.0882
    1DPPC   C4A 2156  12.921  13.132   5.161 -0.3133  0.1508  0.0003
    1DPPC   C1B 2157  12.738  13.761   6.143  0.0816 -0.2401 -0.1592
    1DPPC   C2B 2158  12.472  13.606   5.841 -0.3059 -0.1878  0.2117
    1DPPC   C3B 2159  12.284  13.261   5.540 -0.0590  0.1947  0.0494
    1DPPC   C4B 2160  12.001  12.983   5.463 -0.0887 -0.0569  0.1112
    1DPPC   NC3 2161   9.999  13.972   6.906 -0.1887 -0.1122  0.1141
    1DPPC   PO4 2162  10.446  13.868   7.100 -0.3488  0.0213 -0.0829
    1DPPC   GL1 2163  10.391  13.751   6.694  0.1937  0.0100  0.1074
    1DPPC   GL2 2164  10.106  13.851   6.434  0.4599 -0.0271  0.0180
    1DPPC   C1A 2165  10.295  13.456   6.256  0.2311  0.0179  0.1380
    1DPPC   C2A 2166  10.312  13.288   5.809 -0.0943  0.1948  0.0908
    1DPPC   C3A 2167  10.081  13.475   5.423 -0.0156  0.1313  0.0673
    1DPPC   C4A 2168  10.089  13.646   5.174 -0.0711 -0.0837  0.0705
    1DPPC   C1B 2169   9.817  13.734   6.091 -0.0894  0.1610  0.1797
    1DPPC   C2B 2170   9.766  13.819   5.676  0.1194 -0.0537 -0.0422
    1DPPC   C3B 2171   9.626  13.660   5.186  0.0360 -0.2046 -0.0340
    1DPPC   C4B 2172   9.564  13.337   4.874 -0.0095  0.0772 -0.1634
    1DPPC   NC3 2173   9.522  19.662   6.551 -0.0774 -0.0100 -0.0725
    1DPPC   PO4 2174   9.411  19.781   6.318 -0.0700 -0.1256  0.1281
    1DPPC   GL1 2175   9.510  19.463   6.010  0.5845 -0.1479 -0.0939
    1DPPC   GL2 2176   9.880  19.478   5.828 -0.1075  0.0485 -0.0233
    1DPPC   C1A 2177   9.327  19.175   5.775  0.1009 -0.0158 -0.1618
    1DPPC   C2A 2178   9.355  18.838   5.670  0.1024  0.0324  0.0043
    1DPPC   C3A 2179   9.009  18.700   5.374 -0.1010  0.0726  0.1501
    1DPPC   C4A 2180   9.243  18.733   4.988  0.3541  0.1021 -0.1538
    1DPPC   C1B 2181   9.668  19.612   5.427 -0.2373 -0.2387  0.1984
    1DPPC   C2B 2182   9.647  19.703   4.932  0.0379 -0.3189  0.0056
    1DPPC   C3B 2183   9.838  19.927   4.603 -0.0432 -0.2728 -0.0947
    1DPPC   C4B 2184  10.316  19.873   4.518  0.1768  0.0772  0.0569
    1DPPC   NC3 2185  12.882  11.941   7.257 -0.3553  0.1389  0.0649
    1DPPC   PO4 2186  12.894  12.342   7.081 -0.2669 -0.0683 -0.1020
    1DPPC   GL1 2187  12.836  12.523   6.740 -0.1636 -0.0941 -0.0664
    1DPPC   GL2 2188  12.776  12.352   6.507 -0.1101  0.0542  0.1795
    1DPPC   C1A 2189  12.933  12.872   6.494 -0.1599 -0.1057  0.2059
    1DPPC   C2A 2190  13.322  13.075   6.249  0.0665 -0.0612  0.2114
    1DPPC   C3A 2191  13.310  13.021   5.846 -0.0040 -0.0072 -0.3134
    1DPPC   C4A 2192  13.183  12.835   5.487  0.1447  0.2183  0.0628
    1DPPC   C1B 2193  12.807  12.159   6.087 -0.3271 -0.1397 -0.2010
    1DPPC   C2B 2194  12.594  12.066   5.711  0.0392 -0.1241 -0.0536
    1DPPC   C3B 2195  12.413  12.125   5.274  0.0745  0.3486 -0.0162
    1DPPC   C4B 2196  12.502  12.371   4.926 -0.0855 -0.1088 -0.1278
    1DPPC   NC3 2197  17.890   8.754   6.813 -0.0877 -0.2271 -0.1156
    1DPPC   PO4 2198  18.311   8.904   6.807 -0.0129  0.4417  0.1609
    1DPPC   GL1 2199  18.227   8.910   6.378  0.0179 -0.0765 -0.2294
    1DPPC   GL2 2200  17.858   8.947   6.337 -0.0055  0.0539  0.1788
    1DPPC   C1A 2201  18.326   8.884   6.006 -0.1603  0.0842  0.1441
    1DPPC   C2A 2202  18.363   8.862   5.579 -0.0182  0.1713  0.1783
    1DPPC   C3A 2203  18.438   8.907   5.152  0.5625 -0.0987 -0.4066
    1DPPC   C4A 2204  18.272   8.878   4.761 -0.2707  0.1738 -0.2756
    1DPPC   C1B 2205  17.843   8.868   5.823 -0.1583  0.1735 -0.1147
    1DPPC   C2B 2206  17.959   8.788   5.386 -0.3175  0.0227 -0.2464
    1DPPC   C3B 2207  17.874   8.860   5.028 -0.2844  0.0606  0.4576
    1DPPC   C4B 2208  17.678   8.817   4.609 -0.1566  0.0653 -0.2820
    1DPPC   NC3 2209   5.611  10.177   6.968 -0.1867  0.3426 -0.0922
    1DPPC   PO4 2210   5.740  10.671   6.704 -0.0269  0.1865 -0.1201
    1DPPC   GL1 2211   5.445  10.318   6.521 -0.0242 -0.1206  0.1767
    1DPPC   GL2 2212   5.721  10.124   6.414 -0.3550  0.0161  0.0733
    1DPPC   C1A 2213   5.336  10.311   6.088  0.3506  0.1296 -0.1083
    1DPPC   C2A 2214   5.270  10.199   5.724 -0.1060 -0.0814 -0.1500
    1DPPC   C3A 2215   5.489  10.200   5.309 -0.2718  0.1864  0.1388
    1DPPC   C4A 2216   5.587  10.388   4.955 -0.1891 -0.0572 -0.1268
    1DPPC   C1B 2217   5.802  10.263   5.947 -0.1281 -0.1432 -0.1647
    1DPPC   C2B 2218   5.911  10.238   5.586  0.1572 -0.1306  0.1968
    1DPPC   C3B 2219   6.018   9.946   5.253  0.1825  0.0922  0.3892
    1DPPC   C4B 2220   6.316   9.703   5.087 -0.2136  0.1386 -0.1271
    1DPPC   NC3 2221  10.532  13.430   7.786 -0.0427 -0.0888  0.1529
    1DPPC   PO4 2222  10.658  13.468   7.329  0.2919 -0.1260 -0.1099
    1DPPC   GL1 2223  10.663  13.181   6.999 -0.0066 -0.1120 -0.0617
    1DPPC   GL2 2224  10.637  12.859   6.989 -0.0812  0.0236 -0.1372
    1DPPC   C1A 2225  10.557  13.263   6.614  0.2414  0.0259  0.2352
    1DPPC   C2A 2226  10.761  13.338   6.149 -0.1591 -0.3608  0.0832
    1DPPC   C3A 2227  10.849  13.181   5.706 -0.0694  0.1040 -0.0220
    1DPPC   C4A 2228  10.854  13.056   5.256 -0.0460 -0.0474  0.2456
    1DPPC   C1B 2229  11.000  13.021   6.668  0.2191 -0.1642 -0.0887
    1DPPC   C2B 2230  11.172  13.126   6.304  0.2123  0.0596  0.3723
    1DPPC   C3B 2231  11.277  12.957   5.954 -0.0250 -0.3521  0.1718
    1DPPC   C4B 2232  11.391  13.068   5.541 -0.1907 -0.0303  0.2423
    1DPPC   NC3 2233  12.460  13.570   7.139 -0.0507  0.1836  0.0141
    1DPPC   PO4 2234  12.216  13.334   7.222  0.1864 -0.0736  0.0482
    1DPPC   GL1 2235  12.117  13.530   6.786  0.0207  0.2217  0.1684
    1DPPC   GL2 2236  12.225  13.850   6.705  0.0491  0.1103 -0.0859
    1DPPC   C1A 2237  11.848  13.284   6.575 -0.0302 -0.0748  0.4758
    1DPPC   C2A 2238  11.696  13.090   6.205 -0.0131  0.0157  0.1518
    1DPPC   C3A 2239  11.764  13.229   5.844 -0.0438 -0.0336  0.0028
    1DPPC   C4A 2240  11.923  13.599   5.799 -0.0842 -0.0708 -0.0815
    1DPPC   C1B 2241  12.241  13.655   6.263 -0.3057  0.1496  0.0998
    1DPPC   C2B 2242  12.198  13.291   6.076  0.0471 -0.0819  0.1305
    1DPPC   C3B 2243  12.133  12.903   5.963 -0.1793 -0.5160 -0.0637
    1DPPC   C4B 2244  11.957  12.496   6.007  0.0569 -0.0312  0.0475
    1DPPC   NC3 2245  20.263   9.110   6.688 -0.1467  0.0140  0.3853
    1DPPC   PO4 2246  20.557   8.890   6.427 -0.2056  0.0289  0.1332
    1DPPC   GL1 2247  20.886   8.823   6.190  0.2999  0.0864  0.3217
    1DPPC   GL2 2248  21.003   9.116   6.158 -0.1728  0.2828 -0.0481
    1DPPC   C1A 2249  20.776   8.834   5.718  0.4173 -0.3329  0.1106
    1DPPC   C2A 2250  20.822   8.734   5.325 -0.2954 -0.2796 -0.0617
    1DPPC   C3A 2251  20.713   8.830   4.929 -0.0072  0.0986  0.0310
    1DPPC   C4A 2252  20.348   8.928   4.558 -0.4016 -0.0286 -0.0209
    1DPPC   C1B 2253  20.819   9.354   5.852  0.5304 -0.1430  0.1488
    1DPPC   C2B 2254  20.951   9.341   5.457  0.2588 -0.0393 -0.1367
    1DPPC   C3B 2255  21.012   9.249   5.040  0.0125 -0.2694 -0.0647
    1DPPC   C4B 2256  21.281   9.538   4.743  0.3973 -0.1183 -0.0977
    1DPPC   NC3 2257  14.329   9.724   7.624 -0.1667 -0.1814  0.0135
    1DPPC   PO4 2258  14.371  10.055   7.267 -0.1836  0.0699 -0.2594
    1DPPC   GL1 2259  14.420   9.997   6.872  0.0061 -0.0974 -0.3254
    1DPPC   GL2 2260  14.740   9.851   6.917 -0.1301 -0.0959  0.0537
    1DPPC   C1A 2261  14.233  10.121   6.519  0.1973 -0.1958 -0.0841
    1DPPC   C2A 2262  14.213  10.088   6.078  0.0401  0.0632  0.0503
    1DPPC   C3A 2263  13.927   9.748   5.829  0.1662  0.3243  0.1121
    1DPPC   C4A 2264  13.885   9.273   5.927 -0.5483 -0.0819  0.0691
    1DPPC   C1B 2265  14.695   9.840   6.505  0.0955  0.0214  0.2145
    1DPPC   C2B 2266  14.633   9.816   6.084  0.1763 -0.2799  0.2267
    1DPPC   C3B 2267  14.450   9.681   5.743 -0.2688  0.0188 -0.0064
    1DPPC   C4B 2268  14.190   9.547   5.453  0.2043 -0.0979 -0.0234
    1DPPC   NC3 2269  19.916  17.828   7.028  0.0181  0.0173 -0.2551
    1DPPC   PO4 2270  19.964  17.443   6.737 -0.0502  0.2927  0.2283
    1DPPC   GL1 2271  19.944  17.417   6.241  0.3059  0.1210 -0.1991
    1DPPC   GL2 2272  20.298  17.410   6.210  0.1312 -0.1059 -0.2859
    1DPPC   C1A 2273  19.950  17.590   5.684 -0.2157  0.1110  0.0595
    1DPPC   C2A 2274  19.891  17.258   5.413  0.1754 -0.1325 -0.0980
    1DPPC   C3A 2275  19.983  17.150   5.026 -0.0120  0.1840  0.0217
    1DPPC   C4A 2276  19.932  17.417   4.561  0.0441 -0.2446 -0.1521
    1DPPC   C1B 2277  20.177  17.153   5.794 -0.0315  0.0918  0.1719
    1DPPC   C2B 2278  20.314  16.996   5.393  0.1293 -0.3677 -0.0680
    1DPPC   C3B 2279  20.422  16.974   5.034 -0.1866  0.2458  0.3827
    1DPPC   C4B 2280  20.322  17.068   4.637  0.1058  0.1745 -0.0842
    1DPPC   NC3 2281  11.015  13.923   7.296  0.1859 -0.2781 -0.2445
    1DPPC   PO4 2282  10.871  14.173   6.907  0.0128 -0.1148  0.0698
    1DPPC   GL1 2283  10.948  14.049   6.487 -0.2031 -0.0365  0.0073
    1DPPC   GL2 2284  10.569  14.149   6.455 -0.1168 -0.3780 -0.1316
    1DPPC   C1A 2285  10.985  13.797   6.159 -0.1598  0.1296 -0.0739
    1DPPC   C2A 2286  10.823  13.719   5.750  0.1893 -0.2340 -0.1073
    1DPPC   C3A 2287  10.584  13.520   5.438  0.1571 -0.0654  0.1208
    1DPPC   C4A 2288  10.376  13.085   5.251 -0.0221 -0.0464 -0.2080
    1DPPC   C1B 2289  10.487  13.928   6.102  0.0081 -0.2218 -0.2189
    1DPPC   C2B 2290  10.267  13.775   5.803 -0.1682 -0.0616  0.0749
    1DPPC   C3B 2291  10.350  13.952   5.413 -0.0529 -0.0445 -0.0256
    1DPPC   C4B 2292  10.315  14.298   5.228  0.0552  0.3089 -0.0870
    1DPPC   NC3 2293  17.886  18.236   7.224 -0.3182 -0.0576  0.1925
    1DPPC   PO4 2294  18.200  18.442   6.933 -0.2754 -0.1126  0.1100
    1DPPC   GL1 2295  18.259  18.201   6.500  0.2166  0.0301  0.2097
    1DPPC   GL2 2296  18.646  18.138   6.296 -0.0283  0.2181  0.0336
    1DPPC   C1A 2297  18.046  18.071   6.142 -0.1551  0.0640 -0.3785
    1DPPC   C2A 2298  18.170  17.916   5.771 -0.1861 -0.0123 -0.0579
    1DPPC   C3A 2299  18.178  17.957   5.317  0.0585  0.2131  0.2583
    1DPPC   C4A 2300  18.129  17.697   5.035 -0.0157  0.2014  0.1564
    1DPPC   C1B 2301  18.663  18.235   5.900  0.1542 -0.2697 -0.0206
    1DPPC   C2B 2302  18.582  18.080   5.509  0.0900 -0.2111  0.1966
    1DPPC   C3B 2303  18.630  17.927   5.065 -0.1137 -0.0160 -0.1540
    1DPPC   C4B 2304  18.611  17.993   4.712  0.1265 -0.0170  0.0466
    1DPPC   NC3 2305  15.384  20.854   7.059 -0.1150 -0.0650  0.1514
    1DPPC   PO4 2306  15.008  21.022   6.938 -0.2332 -0.0333  0.2677
    1DPPC   GL1 2307  15.002  20.850   6.512 -0.0303  0.3382  0.2690
    1DPPC   GL2 2308  15.376  20.720   6.498  0.0768  0.1767 -0.0724
    1DPPC   C1A 2309  14.672  20.850   6.118  0.0123  0.0014 -0.1953
    1DPPC   C2A 2310  14.758  20.901   5.686 -0.1396  0.1062 -0.0252
    1DPPC   C3A 2311  14.825  20.896   5.250  0.0376  0.0310 -0.2921
    1DPPC   C4A 2312  14.813  20.757   4.911 -0.0102 -0.2104 -0.0488
    1DPPC   C1B 2313  15.586  20.617   6.171  0.1678  0.0669  0.0349
    1DPPC   C2B 2314  15.609  20.523   5.713  0.0791 -0.0731  0.1517
    1DPPC   C3B 2315  15.791  20.374   5.341  0.0981 -0.1098  0.0614
    1DPPC   C4B 2316  16.118  20.111   5.222 -0.2800 -0.0419 -0.0362
    1DPPC   NC3 2317   7.129   2.337   7.534 -0.3189  0.0393  0.0330
    1DPPC   PO4 2318   7.418   2.528   7.357 -0.0076  0.0180  0.0461
    1DPPC   GL1 2319   7.166   2.629   6.967 -0.1164 -0.0460  0.3224
    1DPPC   GL2 2320   7.443   2.721   6.678  0.3597  0.3137  0.8653
    1DPPC   C1A 2321   7.009   2.860   6.554  0.2335 -0.0675 -0.3635
    1DPPC   C2A 2322   6.695   2.741   6.229  0.0501  0.1465 -0.3054
    1DPPC   C3A 2323   6.552   2.713   5.797  0.2261  0.2493 -0.0049
    1DPPC   C4A 2324   6.390   2.589   5.347  0.0383 -0.0676 -0.1288
    1DPPC   C1B 2325   7.323   2.708   6.143  0.3545 -0.0037  0.1068
    1DPPC   C2B 2326   7.467   2.761   5.645  0.0941  0.0181 -0.1920
    1DPPC   C3B 2327   7.459   3.037   5.213  0.0465  0.1262 -0.0349
    1DPPC   C4B 2328   7.701   3.452   5.097 -0.0734  0.0589  0.0832
    1DPPC   NC3 2329   7.293  24.299   6.086  0.1638 -0.2031  0.1255
    1DPPC   PO4 2330   7.791  24.237   5.963  0.2406 -0.2072  0.0415
    1DPPC   GL1 2331   7.857  24.127   5.471 -0.1692  0.0980 -0.0245
    1DPPC   GL2 2332   8.177  24.064   5.514 -0.0228 -0.0023 -0.1746
    1DPPC   C1A 2333   7.573  24.162   5.152 -0.1914 -0.0081  0.2905
    1DPPC   C2A 2334   7.705  24.422   4.891  0.0899  0.0632 -0.1305
    1DPPC   C3A 2335   7.670  24.793   4.685  0.3537  0.0523 -0.0596
    1DPPC   C4A 2336   7.719  24.998   4.216 -0.0675 -0.2890  0.0855
    1DPPC   C1B 2337   8.205  24.230   5.032  0.2223 -0.2835  0.2146
    1DPPC   C2B 2338   8.386  24.376   4.720 -0.0886  0.0723  0.3036
    1DPPC   C3B 2339   8.843  24.516   4.612 -0.0767 -0.0256  0.0500
    1DPPC   C4B 2340   8.872  24.770   4.142  0.0863  0.1108  0.1927
    1DPPC   NC3 2341   7.147  13.682   6.621 -0.0456 -0.0688 -0.2751
    1DPPC   PO4 2342   7.218  13.362   6.817  0.0634  0.1753  0.0736
    1DPPC   GL1 2343   7.216  12.951   6.602 -0.0084  0.2270  0.1971
    1DPPC   GL2 2344   7.517  12.744   6.652  0.0585 -0.0415  0.4064
    1DPPC   C1A 2345   7.049  12.515   6.361 -0.1417  0.2140  0.3270
    1DPPC   C2A 2346   6.985  12.278   6.076 -0.0085  0.0133 -0.2865
    1DPPC   C3A 2347   7.084  12.084   5.731 -0.1786 -0.0450 -0.1639
    1DPPC   C4A 2348   6.865  11.789   5.551  0.1113 -0.3233  0.0668
    1DPPC   C1B 2349   7.594  12.389   6.362 -0.1701 -0.2592  0.1140
    1DPPC   C2B 2350   7.506  12.440   5.993 -0.0848  0.0089 -0.2628
    1DPPC   C3B 2351   7.591  12.191   5.635 -0.0423 -0.1566 -0.1573
    1DPPC   C4B 2352   7.727  11.959   5.296  0.0320 -0.0181  0.2415
    1DPPC   NC3 2353  10.987  15.181   7.017  0.2988  0.0463 -0.3411
    1DPPC   PO4 2354  10.804  15.515   6.885 -0.0769 -0.4137 -0.0925
    1DPPC   GL1 2355  10.848  15.451   6.577 -0.1174 -0.0036 -0.2273
    1DPPC   GL2 2356  10.780  15.086   6.571 -0.0944 -0.1004 -0.1257
    1DPPC   C1A 2357  10.786  15.497   6.166 -0.0328 -0.1391 -0.2936
    1DPPC   C2A 2358  10.820  15.433   5.739  0.0659  0.1344 -0.1496
    1DPPC   C3A 2359  10.731  15.170   5.383  0.2031  0.2113 -0.0482
    1DPPC   C4A 2360  10.924  14.966   4.960  0.0575  0.0448  0.2854
    1DPPC   C1B 2361  10.769  14.983   6.091  0.3203 -0.2349 -0.0273
    1DPPC   C2B 2362  10.854  14.736   5.696 -0.3205 -0.0815  0.0037
    1DPPC   C3B 2363  10.982  14.541   5.366 -0.1211  0.3378  0.2465
    1DPPC   C4B 2364  10.825  14.372   4.932  0.0468  0.0402 -0.0508
    1DPPC   NC3 2365  17.669  10.294   6.530  0.0744  0.4026  0.2016
    1DPPC   PO4 2366  18.075  10.033   6.544 -0.0787  0.0748 -0.2694
    1DPPC   GL1 2367  17.826   9.962   6.195  0.3920 -0.0516  0.1272
    1DPPC   GL2 2368  17.590  10.224   6.051 -0.2993 -0.3329 -0.0958
    1DPPC   C1A 2369  17.909   9.812   5.898 -0.3299 -0.1458 -0.0691
    1DPPC   C2A 2370  17.897   9.750   5.381  0.0561  0.1230 -0.2835
    1DPPC   C3A 2371  17.904   9.782   4.997  0.0422  0.0472  0.0834
    1DPPC   C4A 2372  18.291   9.608   4.745 -0.0679 -0.0321 -0.0830
    1DPPC   C1B 2373  17.571  10.201   5.643  0.1656 -0.0778  0.0177
    1DPPC   C2B 2374  17.636  10.145   5.242 -0.1532  0.2163 -0.1810
    1DPPC   C3B 2375  17.748  10.297   4.819  0.1022  0.1137 -0.0228
    1DPPC   C4B 2376  17.794  10.410   4.403  0.2459 -0.1177  0.0569
    1DPPC   NC3 2377  10.896  17.078   7.180 -0.2953  0.2088 -0.0453
    1DPPC   PO4 2378  11.148  17.018   6.879  0.1069 -0.0164  0.0111
    1DPPC   GL1 2379  11.251  16.844   6.472 -0.0114 -0.1161 -0.0698
    1DPPC   GL2 2380  11.078  16.998   6.285  0.2765 -0.1393  0.0108
    1DPPC   C1A 2381  11.471  16.672   6.128 -0.1397 -0.0523  0.0954
    1DPPC   C2A 2382  11.441  16.649   5.696  0.0913 -0.1821  0.5266
    1DPPC   C3A 2383  11.391  16.728   5.259 -0.3849 -0.1178  0.0903
    1DPPC   C4A 2384  11.212  16.757   4.899 -0.0731 -0.2149  0.0190
    1DPPC   C1B 2385  11.206  17.109   5.785  0.1241  0.0312 -0.1474
    1DPPC   C2B 2386  11.100  17.167   5.399 -0.2891 -0.1631  0.0382
    1DPPC   C3B 2387  11.066  17.240   4.989  0.1097  0.1487 -0.0677
    1DPPC   C4B 2388  11.201  17.419   4.622  0.1206  0.0312  0.3137
    1DPPC   NC3 2389  18.700  18.083   6.827  0.4943 -0.0822  0.2411
    1DPPC   PO4 2390  18.404  17.775   6.718 -0.2937  0.0006  0.1396
    1DPPC   GL1 2391  18.438  17.698   6.320  0.1522  0.0839 -0.0213
    1DPPC   GL2 2392  18.150  17.519   6.217 -0.0461 -0.1094 -0.2834
    1DPPC   C1A 2393  18.641  17.706   6.048  0.0341 -0.0113  0.2065
    1DPPC   C2A 2394  18.863  17.721   5.646  0.0259 -0.0795  0.0070
    1DPPC   C3A 2395  19.016  17.661   5.234  0.0667  0.1006 -0.0303
    1DPPC   C4A 2396  19.103  17.740   4.796 -0.1195  0.1181  0.0839
    1DPPC   C1B 2397  17.950  17.375   5.809  0.0695  0.0319  0.2150
    1DPPC   C2B 2398  17.928  17.443   5.410 -0.0182  0.2553 -0.0215
    1DPPC   C3B 2399  17.710  17.438   4.962 -0.2551  0.1720  0.0267
    1DPPC   C4B 2400  17.545  17.197   4.591 -0.3121 -0.2189 -0.0849
    1DPPC   NC3 2401  16.295  23.277   6.472  0.2839 -0.2532 -0.3223
    1DPPC   PO4 2402  16.313  23.650   6.639 -0.1927 -0.0280 -0.3314
    1DPPC   GL1 2403  16.118  23.804   6.237  0.1747  0.1844  0.0804
    1DPPC   GL2 2404  16.372  23.537   6.054 -0.1164 -0.1913 -0.0025
    1DPPC   C1A 2405  16.239  23.996   5.813  0.1210  0.1135 -0.2051
    1DPPC   C2A 2406  16.384  23.981   5.425  0.1656 -0.3137  0.0028
    1DPPC   C3A 2407  16.566  23.917   5.072  0.1056 -0.2963 -0.0316
    1DPPC   C4A 2408  16.930  23.970   5.100 -0.0816 -0.0786  0.0951
    1DPPC   C1B 2409  16.636  23.717   5.837 -0.0884  0.2663  0.0202
    1DPPC   C2B 2410  16.814  23.619   5.427 -0.0049  0.0116  0.2452
    1DPPC   C3B 2411  17.016  23.425   5.067  0.1998 -0.3950 -0.3613
    1DPPC   C4B 2412  17.007  23.545   4.677  0.1404  0.1034 -0.0271
    1DPPC   NC3 2413  23.843  14.634   5.732  0.2018  0.3916  0.1541
    1DPPC   PO4 2414  23.677  14.950   5.926 -0.1943 -0.0778 -0.1099
    1DPPC   GL1 2415  23.409  14.872   5.581 -0.0054  0.0820 -0.2301
    1DPPC   GL2 2416  23.704  14.873   5.323 -0.2304 -0.2855 -0.1849
    1DPPC   C1A 2417  23.213  14.893   5.186  0.4308  0.0889  0.0234
    1DPPC   C2A 2418  23.064  14.963   4.767  0.3252 -0.4769 -0.1304
    1DPPC   C3A 2419  22.931  14.897   4.302 -0.1461 -0.0176 -0.0571
    1DPPC   C4A 2420  22.933  15.073   3.891 -0.0370  0.0030 -0.4471
    1DPPC   C1B 2421  23.588  14.832   4.896 -0.0772  0.4240 -0.0587
    1DPPC   C2B 2422  23.553  14.687   4.553  0.1695 -0.3208 -0.1341
    1DPPC   C3B 2423  23.409  14.783   4.148 -0.1142 -0.2687 -0.0997
    1DPPC   C4B 2424  23.381  14.842   3.703  0.1128  0.1401 -0.2944
    1DPPC   NC3 2425   9.741  12.425   8.155  0.0379  0.0693  0.2949
    1DPPC   PO4 2426   9.649  12.396   7.725  0.0134  0.0255 -0.1798
    1DPPC   GL1 2427   9.801  12.182   7.393 -0.0832  0.2262  0.0291
    1DPPC   GL2 2428   9.867  12.374   7.005 -0.0910  0.0103  0.0052
    1DPPC   C1A 2429   9.759  11.863   7.002  0.2714  0.4710 -0.1753
    1DPPC   C2A 2430   9.768  11.648   6.641  0.0272 -0.0261 -0.0713
    1DPPC   C3A 2431   9.650  11.488   6.180  0.0498  0.0018  0.1546
    1DPPC   C4A 2432   9.596  11.037   6.028 -0.0371 -0.2839 -0.0541
    1DPPC   C1B 2433   9.875  12.154   6.598  0.0220 -0.0688  0.1966
    1DPPC   C2B 2434  10.063  11.939   6.169 -0.0513 -0.1541  0.0048
    1DPPC   C3B 2435  10.098  11.591   5.920 -0.0601  0.0411  0.1081
    1DPPC   C4B 2436   9.918  11.264   5.699  0.0167 -0.0687  0.0751
    1DPPC   NC3 2437  14.505  12.977   7.379 -0.3203  0.0941  0.1105
    1DPPC   PO4 2438  14.502  13.335   7.082  0.1456  0.0026  0.1019
    1DPPC   GL1 2439  14.375  13.246   6.623  0.1127 -0.1332  0.2615
    1DPPC   GL2 2440  14.083  13.041   6.651  0.2415  0.2622 -0.2810
    1DPPC   C1A 2441  14.312  13.411   6.263 -0.0060  0.2187 -0.0375
    1DPPC   C2A 2442  14.214  13.285   5.747 -0.0355  0.0169  0.1130
    1DPPC   C3A 2443  14.111  13.238   5.279 -0.0206  0.1807  0.0455
    1DPPC   C4A 2444  13.960  13.369   4.924 -0.1239  0.1084  0.6217
    1DPPC   C1B 2445  14.000  13.034   6.228 -0.0030  0.0772  0.0983
    1DPPC   C2B 2446  13.862  12.972   5.792 -0.0888  0.0523 -0.0998
    1DPPC   C3B 2447  13.696  12.755   5.392 -0.3711  0.0593 -0.0693
    1DPPC   C4B 2448  13.764  12.414   5.049  0.0055 -0.0689 -0.1729
    1DPPC   NC3 2449  19.561   9.414   6.503  0.0733 -0.0062 -0.2591
    1DPPC   PO4 2450  19.784   8.992   6.546 -0.0458  0.1145  0.0977
    1DPPC   GL1 2451  19.717   8.801   6.161 -0.1449  0.0882 -0.1227
    1DPPC   GL2 2452  19.808   8.431   6.257 -0.0961 -0.0697 -0.1526
    1DPPC   C1A 2453  19.781   8.651   5.682  0.0167  0.1396  0.0904
    1DPPC   C2A 2454  19.972   8.433   5.470 -0.2199  0.4105 -0.2852
    1DPPC   C3A 2455  20.053   8.267   5.133  0.1801  0.0354  0.1874
    1DPPC   C4A 2456  20.210   7.960   5.049 -0.2009 -0.0937  0.2020
    1DPPC   C1B 2457  19.885   8.096   5.948 -0.0289  0.3677 -0.0027
    1DPPC   C2B 2458  19.920   7.937   5.524  0.3235 -0.3867 -0.3357
    1DPPC   C3B 2459  19.777   7.651   5.356  0.0910  0.0467 -0.3150
    1DPPC   C4B 2460  19.741   7.221   5.200  0.0805  0.3141 -0.0962
    1DPPC   NC3 2461  20.627  16.437   6.189  0.1371  0.1657  0.2147
    1DPPC   PO4 2462  21.026  16.572   6.122 -0.1184 -0.0877  0.1211
    1DPPC   GL1 2463  20.936  16.175   5.861  0.2899 -0.0744  0.0614
    1DPPC   GL2 2464  20.956  15.793   5.854 -0.0395  0.0697 -0.2442
    1DPPC   C1A 2465  20.981  16.061   5.462  0.1666 -0.0875  0.2471
    1DPPC   C2A 2466  20.945  15.940   5.083 -0.0790  0.2580 -0.0736
    1DPPC   C3A 2467  20.992  15.848   4.693 -0.1464  0.2823 -0.1057
    1DPPC   C4A 2468  20.986  15.918   4.256 -0.1812 -0.0019  0.0061
    1DPPC   C1B 2469  20.702  15.629   5.447 -0.2990 -0.0274 -0.0190
    1DPPC   C2B 2470  20.630  15.586   5.051 -0.0058  0.2943  0.2788
    1DPPC   C3B 2471  20.713  15.314   4.718  0.1847 -0.1576 -0.0204
    1DPPC   C4B 2472  20.810  15.423   4.384  0.0196 -0.2775  0.2858
    1DPPC   NC3 2473  10.357  15.899   6.803 -0.1262  0.1471  0.0584
    1DPPC   PO4 2474   9.894  15.915   6.797  0.0856  0.0592 -0.0757
    1DPPC   GL1 2475  10.015  15.945   6.425 -0.5024  0.5301 -0.2315
    1DPPC   GL2 2476  10.305  15.759   6.267 -0.1210  0.0336  0.2822
    1DPPC   C1A 2477   9.845  15.882   5.996  0.1795 -0.1074  0.1038
    1DPPC   C2A 2478   9.937  15.850   5.514 -0.1955 -0.0300 -0.1836
    1DPPC   C3A 2479   9.779  15.898   5.164  0.0707  0.0039  0.0797
    1DPPC   C4A 2480   9.632  15.855   4.745  0.3070  0.0518 -0.0193
    1DPPC   C1B 2481  10.403  15.722   5.887  0.2865  0.0236  0.0372
    1DPPC   C2B 2482  10.445  15.641   5.484  0.0672 -0.2040 -0.0649
    1DPPC   C3B 2483  10.514  15.575   5.091 -0.0015 -0.5132 -0.1011
    1DPPC   C4B 2484  10.469  15.229   4.898 -0.0190 -0.1491 -0.0591
    1DPPC   NC3 2485  13.112  15.056   7.756 -0.1813 -0.1184  0.0724
    1DPPC   PO4 2486  13.151  14.820   7.318 -0.1944 -0.3058 -0.1168
    1DPPC   GL1 2487  13.221  14.744   6.828 -0.0619  0.0679 -0.2628
    1DPPC   GL2 2488  13.494  14.938   6.636  0.2154  0.1897  0.0894
    1DPPC   C1A 2489  13.087  14.766   6.391  0.1545  0.0103  0.1777
    1DPPC   C2A 2490  13.183  14.884   5.960 -0.1775 -0.3158  0.0378
    1DPPC   C3A 2491  13.066  14.842   5.586 -0.3983 -0.0960 -0.0272
    1DPPC   C4A 2492  13.003  14.782   5.181  0.1036 -0.1936 -0.1220
    1DPPC   C1B 2493  13.613  14.880   6.173  0.0777  0.5450  0.2883
    1DPPC   C2B 2494  13.623  15.003   5.684  0.0519  0.2253 -0.3175
    1DPPC   C3B 2495  13.505  15.019   5.283 -0.0755 -0.0602  0.2259
    1DPPC   C4B 2496  13.470  14.890   4.925  0.2643 -0.1514 -0.0701
    1DPPC   NC3 2497  12.127  14.300   7.247  0.0567  0.0663 -0.1249
    1DPPC   PO4 2498  12.285  14.725   7.105  0.3863  0.0593 -0.4324
    1DPPC   GL1 2499  12.365  14.887   6.621  0.0483 -0.0236  0.1749
    1DPPC   GL2 2500  12.617  14.675   6.407 -0.2861  0.1336  0.0651
    1DPPC   C1A 2501  12.312  15.013   6.153  0.0402 -0.0807 -0.0938
    1DPPC   C2A 2502  12.280  15.015   5.720 -0.2305 -0.0627 -0.0671
    1DPPC   C3A 2503  12.460  14.845   5.329 -0.1530  0.1629 -0.0150
    1DPPC   C4A 2504  12.234  14.661   5.116 -0.1115 -0.0342  0.1761
    1DPPC   C1B 2505  12.717  14.709   5.959  0.1317 -0.3671  0.2020
    1DPPC   C2B 2506  12.749  14.495   5.612  0.0649 -0.1095 -0.0520
    1DPPC   C3B 2507  12.708  14.373   5.236 -0.0491 -0.0720 -0.3207
    1DPPC   C4B 2508  12.407  14.072   5.047 -0.0932 -0.2203  0.1506
    1DPPC   NC3 2509  16.185  13.936   7.360  0.0900 -0.0608  0.0069
    1DPPC   PO4 2510  15.798  13.829   7.156 -0.2807  0.0818  0.1846
    1DPPC   GL1 2511  15.488  13.845   6.755  0.1331  0.2288 -0.0257
    1DPPC   GL2 2512  15.146  13.751   6.761 -0.2236  0.0413  0.2324
    1DPPC   C1A 2513  15.447  13.674   6.386 -0.1463 -0.1079  0.2273
    1DPPC   C2A 2514  15.297  13.676   5.952 -0.2025  0.1323  0.2928
    1DPPC   C3A 2515  15.209  13.664   5.581 -0.1484 -0.1114  0.1436
    1DPPC   C4A 2516  15.095  13.629   5.148  0.2299 -0.2533  0.0283
    1DPPC   C1B 2517  15.025  13.971   6.389  0.0544  0.2696  0.0427
    1DPPC   C2B 2518  14.887  14.337   6.116 -0.0933 -0.2078  0.0273
    1DPPC   C3B 2519  14.848  14.360   5.639 -0.0423 -0.0426 -0.0608
    1DPPC   C4B 2520  14.826  14.442   5.200 -0.1416 -0.1341  0.1244
    1DPPC   NC3 2521  10.428   8.693   7.808 -0.1852 -0.1559 -0.1871
    1DPPC   PO4 2522  10.219   9.169   7.732 -0.2042  0.0394 -0.0579
    1DPPC   GL1 2523  10.268   9.115   7.320  0.2141 -0.1792  0.0456
    1DPPC   GL2 2524  10.572   9.011   7.256  0.2144 -0.1938 -0.3553
    1DPPC   C1A 2525  10.174   9.043   6.935 -0.1186 -0.0969  0.0024
    1DPPC   C2A 2526  10.121   8.813   6.389  0.0905  0.0037 -0.2798
    1DPPC   C3A 2527  10.231   8.641   6.064  0.0607  0.0330  0.1370
    1DPPC   C4A 2528  10.320   8.426   5.587 -0.1055 -0.1450  0.0898
    1DPPC   C1B 2529  10.604   8.820   6.774 -0.1754 -0.1333  0.0908
    1DPPC   C2B 2530  10.623   8.715   6.424 -0.1415  0.0199  0.1986
    1DPPC   C3B 2531  10.638   8.863   6.013 -0.0778  0.0951 -0.2068
    1DPPC   C4B 2532  10.450   8.957   5.638 -0.0074  0.2781 -0.5221
    1DPPC   NC3 2533   7.659  12.670   7.671  0.0041 -0.2021  0.1977
    1DPPC   PO4 2534   7.844  12.777   7.139 -0.0055  0.3435 -0.1955
    1DPPC   GL1 2535   8.005  12.572   6.750  0.0308 -0.0284  0.2791
    1DPPC   GL2 2536   8.103  12.853   6.662  0.2835  0.3039 -0.1844
    1DPPC   C1A 2537   8.143  12.376   6.350  0.0098  0.1075  0.1248
    1DPPC   C2A 2538   7.979  12.319   5.963 -0.0748 -0.4453  0.1973
    1DPPC   C3A 2539   8.073  12.275   5.518  0.2195 -0.1559  0.0993
    1DPPC   C4A 2540   8.450  12.315   5.232  0.1306  0.1306 -0.2010
    1DPPC   C1B 2541   8.259  12.892   6.295 -0.0124 -0.1502  0.4296
    1DPPC   C2B 2542   8.257  12.762   5.939 -0.0612 -0.0291  0.1377
    1DPPC   C3B 2543   8.311  12.714   5.511 -0.0700 -0.2132 -0.2380
    1DPPC   C4B 2544   8.363  12.955   5.247 -0.0472  0.0360  0.1508
    1DPPC   NC3 2545  15.186  14.229   7.035 -0.0261 -0.0881  0.1291
    1DPPC   PO4 2546  15.562  14.397   6.996 -0.1752 -0.0215 -0.0046
    1DPPC   GL1 2547  15.629  14.528   6.574 -0.1415 -0.3240 -0.0480
    1DPPC   GL2 2548  15.393  14.263   6.483  0.2461 -0.1401  0.0041
    1DPPC   C1A 2549  15.757  14.522   6.137  0.3766  0.0637  0.0710
    1DPPC   C2A 2550  15.812  14.485   5.673 -0.0549 -0.3229 -0.0203
    1DPPC   C3A 2551  15.660  14.386   5.313 -0.0143 -0.0849  0.3026
    1DPPC   C4A 2552  15.444  14.263   4.925  0.1570  0.1719 -0.1481
    1DPPC   C1B 2553  15.403  14.177   6.076  0.0813  0.1631 -0.2225
    1DPPC   C2B 2554  15.349  14.195   5.713 -0.1518 -0.1139  0.3486
    1DPPC   C3B 2555  15.159  14.123   5.315  0.0554 -0.2369 -0.0660
    1DPPC   C4B 2556  15.056  13.979   4.872 -0.3769  0.0803 -0.1374
    1DPPC   NC3 2557  12.049  15.216   6.943  0.1571 -0.0962 -0.2561
    1DPPC   PO4 2558  12.049  15.603   7.024  0.0202 -0.1152 -0.1686
    1DPPC   GL1 2559  11.815  15.577   6.586 -0.1640  0.4576 -0.0639
    1DPPC   GL2 2560  11.898  15.098   6.506  0.0206 -0.1547 -0.0183
    1DPPC   C1A 2561  11.731  15.476   6.159 -0.0465 -0.0416  0.4162
    1DPPC   C2A 2562  11.696  15.375   5.685  0.1898  0.1622  0.1238
    1DPPC   C3A 2563  11.648  15.356   5.195  0.2750  0.1222 -0.5051
    1DPPC   C4A 2564  11.468  15.231   4.858  0.0808 -0.0060 -0.0674
    1DPPC   C1B 2565  11.836  15.027   6.104  0.2323  0.1087  0.2257
    1DPPC   C2B 2566  11.756  14.898   5.680  0.0195 -0.1801  0.0503
    1DPPC   C3B 2567  11.869  14.927   5.341  0.0711 -0.1427  0.4129
    1DPPC   C4B 2568  11.809  14.824   4.991 -0.0098 -0.2448  0.1516
    1DPPC   NC3 2569  10.124  17.065   6.951 -0.3711  0.0543  0.2496
    1DPPC   PO4 2570   9.741  16.956   6.838 -0.2064 -0.1068 -0.3233
    1DPPC   GL1 2571   9.871  16.725   6.514 -0.0288  0.3877  0.1026
    1DPPC   GL2 2572   9.835  16.412   6.550 -0.0780 -0.3240 -0.1678
    1DPPC   C1A 2573  10.218  16.648   6.175 -0.1198  0.0334 -0.2253
    1DPPC   C2A 2574  10.314  16.706   5.799  0.0652 -0.1084  0.0720
    1DPPC   C3A 2575  10.295  16.723   5.387  0.1095  0.0982  0.0627
    1DPPC   C4A 2576  10.267  16.560   4.932  0.0145 -0.0206  0.0368
    1DPPC   C1B 2577   9.814  16.392   6.126  0.0901  0.3504  0.1308
    1DPPC   C2B 2578   9.875  16.371   5.717  0.0082  0.0739 -0.1777
    1DPPC   C3B 2579   9.908  16.353   5.303 -0.2927 -0.0122  0.3528
    1DPPC   C4B 2580   9.790  16.370   4.845  0.0692  0.1559  0.2362
    1DPPC   NC3 2581  17.379  11.043   6.555 -0.0447 -0.0266 -0.1534
    1DPPC   PO4 2582  17.244  10.655   6.650 -0.0921  0.3107 -0.3008
    1DPPC   GL1 2583  17.399  10.699   6.157  0.1339  0.0936  0.1251
    1DPPC   GL2 2584  17.273  11.066   6.033  0.0017  0.1579 -0.1004
    1DPPC   C1A 2585  17.441  10.639   5.780 -0.1579 -0.1468 -0.0322
    1DPPC   C2A 2586  17.469  10.599   5.333  0.1181  0.1366 -0.0083
    1DPPC   C3A 2587  17.325  10.501   4.977 -0.1917 -0.1243 -0.0936
    1DPPC   C4A 2588  17.281  10.118   4.895  0.1245  0.0598  0.0943
    1DPPC   C1B 2589  17.437  11.039   5.478 -0.1467 -0.0592 -0.2690
    1DPPC   C2B 2590  17.447  10.985   5.005 -0.5456  0.0176 -0.1828
    1DPPC   C3B 2591  17.473  10.784   4.614  0.0066 -0.0944  0.1157
    1DPPC   C4B 2592  17.371  10.649   4.241  0.0483  0.0025  0.1406
    1DPPC   NC3 2593  14.587  17.215   6.769 -0.2158  0.1681 -0.0915
    1DPPC   PO4 2594  14.309  16.953   6.777  0.0537 -0.0065  0.1378
    1DPPC   GL1 2595  14.354  16.912   6.351  0.1842 -0.1275  0.1954
    1DPPC   GL2 2596  14.092  16.769   6.232  0.1316 -0.0735 -0.0606
    1DPPC   C1A 2597  14.539  17.085   6.044  0.1016 -0.0954 -0.0626
    1DPPC   C2A 2598  14.591  17.050   5.676  0.0619  0.0723 -0.0091
    1DPPC   C3A 2599  14.639  17.142   5.317 -0.0757  0.2404 -0.0306
    1DPPC   C4A 2600  14.603  17.289   4.878  0.1982 -0.1936  0.0743
    1DPPC   C1B 2601  14.177  16.758   5.776 -0.1127 -0.2697 -0.2726
    1DPPC   C2B 2602  14.211  16.789   5.390  0.1000 -0.0605 -0.2086
    1DPPC   C3B 2603  14.581  16.678   5.036  0.0734 -0.0478 -0.4839
    1DPPC   C4B 2604  14.971  16.908   4.783  0.1334 -0.0878  0.0912
    1DPPC   NC3 2605  16.946  10.024   7.189 -0.0268 -0.0316  0.0219
    1DPPC   PO4 2606  16.534  10.048   7.089 -0.3080  0.2182 -0.0105
    1DPPC   GL1 2607  16.260  10.142   6.665 -0.0563  0.2859  0.0269
    1DPPC   GL2 2608  16.286   9.994   6.418 -0.1947  0.0259  0.0365
    1DPPC   C1A 2609  16.106  10.458   6.462  0.0789 -0.2857  0.2832
    1DPPC   C2A 2610  16.000  10.660   6.075  0.1134 -0.1035 -0.0345
    1DPPC   C3A 2611  15.885  10.622   5.788 -0.1703 -0.0081 -0.2225
    1DPPC   C4A 2612  15.928  10.530   5.385 -0.1371  0.3115 -0.0522
    1DPPC   C1B 2613  16.134  10.107   6.048  0.1244 -0.2156  0.0296
    1DPPC   C2B 2614  16.027  10.062   5.601  0.0504  0.0473  0.1923
    1DPPC   C3B 2615  16.086  10.095   5.212  0.1955  0.1965 -0.0076
    1DPPC   C4B 2616  16.068  10.418   4.903 -0.2631 -0.1088 -0.2769
    1DPPC   NC3 2617  10.245  19.406   6.250  0.0428 -0.3249 -0.0066
    1DPPC   PO4 2618   9.837  19.305   6.374 -0.1464  0.1215  0.3303
    1DPPC   GL1 2619   9.804  18.984   6.081 -0.0682  0.0921 -0.3744
    1DPPC   GL2 2620  10.102  18.865   6.216 -0.2085 -0.0752 -0.1613
    1DPPC   C1A 2621   9.748  19.115   5.576 -0.0548 -0.0392  0.0386
    1DPPC   C2A 2622   9.450  19.107   5.249 -0.1293  0.0893  0.3434
    1DPPC   C3A 2623   9.397  19.190   4.803 -0.2961  0.0117  0.4977
    1DPPC   C4A 2624   9.093  19.237   4.476  0.1659 -0.1669 -0.1506
    1DPPC   C1B 2625  10.338  18.848   5.891 -0.2306  0.2516  0.0385
    1DPPC   C2B 2626  10.173  18.745   5.443 -0.1605 -0.0471 -0.1753
    1DPPC   C3B 2627  10.186  18.624   5.020  0.1418  0.4034 -0.4766
    1DPPC   C4B 2628  10.479  18.526   4.720 -0.0437  0.1407  0.2667
    1DPPC   NC3 2629  17.946  12.737   6.625  0.1720 -0.1727  0.1091
    1DPPC   PO4 2630  17.666  13.075   6.660 -0.2502 -0.2080 -0.2039
    1DPPC   GL1 2631  17.737  12.976   6.295  0.2111 -0.1073  0.0603
    1DPPC   GL2 2632  17.768  13.296   6.132 -0.3130 -0.2558 -0.0266
    1DPPC   C1A 2633  17.683  12.867   5.851 -0.0295  0.0700  0.2680
    1DPPC   C2A 2634  17.529  12.945   5.446  0.0721  0.0753  0.3680
    1DPPC   C3A 2635  17.428  12.829   4.973 -0.1190 -0.1938 -0.0872
    1DPPC   C4A 2636  17.179  12.701   4.724 -0.2815 -0.0375  0.2249
    1DPPC   C1B 2637  17.889  13.264   5.675 -0.0954 -0.2074  0.2840
    1DPPC   C2B 2638  17.894  13.233   5.257  0.1037 -0.0713 -0.0674
    1DPPC   C3B 2639  17.770  13.172   4.807 -0.3148  0.0504 -0.2223
    1DPPC   C4B 2640  17.617  12.860   4.489  0.0181  0.0483 -0.4055
    1DPPC   NC3 2641  11.323  17.859   6.641  0.2040 -0.0175  0.0289
    1DPPC   PO4 2642  11.555  18.217   6.818  0.0885 -0.0196 -0.1201
    1DPPC   GL1 2643  11.589  18.220   6.412  0.2996  0.0155 -0.1186
    1DPPC   GL2 2644  11.393  18.068   6.150 -0.2475  0.0895 -0.2247
    1DPPC   C1A 2645  11.698  18.472   6.017  0.2343  0.0978 -0.0171
    1DPPC   C2A 2646  11.761  18.529   5.601 -0.0011 -0.0648 -0.3432
    1DPPC   C3A 2647  11.829  18.525   5.282 -0.0737 -0.2410  0.0411
    1DPPC   C4A 2648  11.932  18.588   4.939 -0.1474 -0.1323  0.1697
    1DPPC   C1B 2649  11.462  18.102   5.771  0.0026 -0.1105 -0.0254
    1DPPC   C2B 2650  11.517  18.125   5.391  0.2017  0.0667  0.1461
    1DPPC   C3B 2651  11.666  17.886   5.015  0.1318  0.2407 -0.3249
    1DPPC   C4B 2652  11.745  17.699   4.682  0.2754 -0.1363  0.3123
    1DPPC   NC3 2653  10.370  17.816   6.454 -0.1106 -0.1032  0.0907
    1DPPC   PO4 2654   9.957  17.994   6.505 -0.2453  0.2567 -0.0463
    1DPPC   GL1 2655   9.979  17.864   6.099 -0.0786 -0.3244 -0.0864
    1DPPC   GL2 2656   9.792  17.641   6.173  0.1878 -0.1848 -0.0351
    1DPPC   C1A 2657  10.179  17.802   5.642  0.1073 -0.1157 -0.0163
    1DPPC   C2A 2658  10.153  17.722   5.226  0.0891  0.2130 -0.0772
    1DPPC   C3A 2659  10.135  17.649   4.697 -0.0916 -0.1654 -0.3277
    1DPPC   C4A 2660   9.932  17.332   4.370  0.2950  0.0106 -0.1802
    1DPPC   C1B 2661   9.834  17.503   5.740  0.0468 -0.0834  0.0375
    1DPPC   C2B 2662   9.802  17.339   5.341  0.0621 -0.1522 -0.0251
    1DPPC   C3B 2663   9.699  17.353   4.890 -0.1311  0.0842  0.1784
    1DPPC   C4B 2664   9.451  17.305   4.567  0.0079  0.0172 -0.1036
    1DPPC   NC3 2665  19.948  16.260   6.824  0.1898 -0.0498  0.0134
    1DPPC   PO4 2666  19.627  16.233   6.503  0.2001 -0.1811  0.1571
    1DPPC   GL1 2667  19.525  16.127   6.038 -0.2019  0.0879 -0.2483
    1DPPC   GL2 2668  19.658  15.741   5.954  0.0841 -0.3490  0.1329
    1DPPC   C1A 2669  19.394  16.290   5.654 -0.0172 -0.0584  0.2528
    1DPPC   C2A 2670  19.454  16.192   5.225 -0.0546 -0.0166 -0.4568
    1DPPC   C3A 2671  19.352  16.365   4.841 -0.1559 -0.0747 -0.0292
    1DPPC   C4A 2672  19.347  16.440   4.469 -0.0431  0.1634 -0.2457
    1DPPC   C1B 2673  19.575  15.734   5.487 -0.0771  0.0731  0.0701
    1DPPC   C2B 2674  19.599  15.719   5.123  0.2616  0.0546  0.1326
    1DPPC   C3B 2675  19.558  15.778   4.753  0.1775  0.0050 -0.0956
    1DPPC   C4B 2676  19.473  15.925   4.367  0.2112 -0.1079  0.0929
    1DPPC   NC3 2677  13.433  13.318   7.250  0.1651 -0.1367  0.1824
    1DPPC   PO4 2678  13.636  12.784   7.324  0.0675  0.1462 -0.3686
    1DPPC   GL1 2679  13.574  12.613   6.924  0.0770 -0.3088  0.1810
    1DPPC   GL2 2680  13.326  12.544   6.802 -0.0353  0.0873 -0.1883
    1DPPC   C1A 2681  13.702  12.742   6.484 -0.0838 -0.0590  0.1774
    1DPPC   C2A 2682  13.574  12.633   6.040  0.0087 -0.2593 -0.0341
    1DPPC   C3A 2683  13.390  12.449   5.821  0.1881 -0.2582  0.3601
    1DPPC   C4A 2684  13.366  12.391   5.372 -0.1695 -0.1466 -0.1244
    1DPPC   C1B 2685  13.256  12.419   6.360 -0.0005 -0.0512 -0.0821
    1DPPC   C2B 2686  12.986  12.638   6.036 -0.1340  0.0428 -0.2336
    1DPPC   C3B 2687  12.913  12.415   5.609 -0.1816  0.0165 -0.3420
    1DPPC   C4B 2688  12.936  12.471   5.105 -0.1815 -0.1326 -0.2363
    1DPPC   NC3 2689  16.963  17.272   6.992 -0.0319  0.1810  0.1214
    1DPPC   PO4 2690  16.570  17.097   6.941 -0.0859  0.2446  0.2750
    1DPPC   GL1 2691  16.746  17.117   6.607 -0.0711  0.0705  0.0408
    1DPPC   GL2 2692  16.610  16.976   6.308  0.1901  0.0436  0.0911
    1DPPC   C1A 2693  16.869  17.371   6.159 -0.1121 -0.0036  0.0447
    1DPPC   C2A 2694  16.927  17.733   5.916  0.0892  0.1345  0.1606
    1DPPC   C3A 2695  17.160  17.960   5.677  0.2213  0.0173 -0.0552
    1DPPC   C4A 2696  17.323  18.250   5.386  0.1556  0.3585 -0.0610
    1DPPC   C1B 2697  16.542  16.851   5.870  0.3493  0.0092 -0.1477
    1DPPC   C2B 2698  16.513  16.934   5.469 -0.1078 -0.1174  0.2302
    1DPPC   C3B 2699  16.313  17.168   5.165  0.1513  0.3936  0.0803
    1DPPC   C4B 2700  16.274  17.253   4.758 -0.1935  0.1485 -0.0893
    1DPPC   NC3 2701  16.596  13.039   7.242 -0.1532 -0.1472 -0.0176
    1DPPC   PO4 2702  16.222  13.153   6.864  0.1611 -0.1455 -0.0926
    1DPPC   GL1 2703  16.356  13.454   6.506 -0.0816 -0.0965 -0.1114
    1DPPC   GL2 2704  16.715  13.555   6.483  0.0314 -0.1208  0.1491
    1DPPC   C1A 2705  16.279  13.403   6.052 -0.2584 -0.1543 -0.1190
    1DPPC   C2A 2706  16.164  13.349   5.662  0.1910  0.2480 -0.0038
    1DPPC   C3A 2707  16.005  13.420   5.210  0.1404  0.1633 -0.1247
    1DPPC   C4A 2708  16.048  13.735   4.922 -0.4224  0.0252  0.0680
    1DPPC   C1B 2709  16.768  13.268   6.149 -0.0857 -0.0633 -0.2281
    1DPPC   C2B 2710  16.648  13.363   5.746  0.2149  0.1470 -0.0020
    1DPPC   C3B 2711  16.541  13.259   5.278 -0.1812 -0.1448 -0.0768
    1DPPC   C4B 2712  16.440  13.459   4.899  0.2234  0.1828  0.1134
    1DPPC   NC3 2713  13.317  18.768   6.766 -0.1224 -0.2519 -0.0416
    1DPPC   PO4 2714  13.587  18.370   6.674  0.2047 -0.3623  0.0697
    1DPPC   GL1 2715  13.882  18.483   6.436  0.1364  0.1241  0.4661
    1DPPC   GL2 2716  13.798  18.202   6.240 -0.0917  0.3091  0.0836
    1DPPC   C1A 2717  13.874  18.728   6.061 -0.5472  0.3695 -0.3277
    1DPPC   C2A 2718  14.000  18.706   5.683 -0.0083 -0.0307 -0.0105
    1DPPC   C3A 2719  14.005  18.645   5.203  0.2068 -0.0431 -0.1141
    1DPPC   C4A 2720  13.919  18.590   4.765 -0.3664  0.1251  0.0934
    1DPPC   C1B 2721  13.683  18.328   5.879 -0.1270  0.2371  0.2136
    1DPPC   C2B 2722  13.697  18.231   5.372 -0.1610  0.0610  0.2324
    1DPPC   C3B 2723  13.585  18.233   4.860 -0.0740 -0.0014  0.0823
    1DPPC   C4B 2724  13.564  18.029   4.488  0.0000 -0.1496 -0.2109
    1DPPC   NC3 2725  18.301  11.843   6.558  0.0941 -0.0487  0.1054
    1DPPC   PO4 2726  17.963  11.651   6.500 -0.0048 -0.1881  0.3709
    1DPPC   GL1 2727  18.127  11.600   6.122  0.0798 -0.1932 -0.1626
    1DPPC   GL2 2728  18.248  11.414   6.069  0.2031  0.0054  0.0264
    1DPPC   C1A 2729  18.153  11.728   5.690 -0.3162  0.2111 -0.1616
    1DPPC   C2A 2730  18.217  11.654   5.310 -0.0716 -0.2319 -0.1949
    1DPPC   C3A 2731  17.934  11.704   4.999  0.2156 -0.1186  0.1296
    1DPPC   C4A 2732  17.737  11.905   4.715 -0.2644  0.1522  0.0703
    1DPPC   C1B 2733  18.348  11.218   5.744  0.2487 -0.0723 -0.2264
    1DPPC   C2B 2734  18.345  11.193   5.308 -0.0015  0.0459  0.1439
    1DPPC   C3B 2735  18.253  11.344   4.885  0.1226  0.0849  0.1232
    1DPPC   C4B 2736  18.038  11.592   4.489 -0.2967  0.3334 -0.0078
    1DPPC   NC3 2737  15.195  10.343   7.715  0.1945 -0.1015 -0.2911
    1DPPC   PO4 2738  15.079  10.678   7.370  0.0840 -0.0763 -0.3695
    1DPPC   GL1 2739  14.865  10.804   6.962 -0.1243  0.0417 -0.0008
    1DPPC   GL2 2740  15.070  10.896   6.914 -0.1021 -0.3217  0.0073
    1DPPC   C1A 2741  14.632  10.997   6.611 -0.0590 -0.0772  0.1942
    1DPPC   C2A 2742  14.590  10.990   6.215  0.3508  0.0452  0.5548
    1DPPC   C3A 2743  14.433  10.830   5.777  0.1652  0.0068  0.1084
    1DPPC   C4A 2744  14.562  10.652   5.374  0.1287  0.0237  0.0619
    1DPPC   C1B 2745  15.162  10.915   6.510  0.1379 -0.2466  0.0770
    1DPPC   C2B 2746  15.065  10.944   6.113 -0.0265  0.0979  0.2445
    1DPPC   C3B 2747  14.952  10.904   5.721  0.2190  0.1564 -0.0168
    1DPPC   C4B 2748  14.980  10.911   5.254 -0.0951  0.2054  0.1555
    1DPPC   NC3 2749  16.259  11.281   7.209 -0.1886  0.3387  0.0044
    1DPPC   PO4 2750  16.543  10.947   7.038 -0.0325 -0.0678 -0.2842
    1DPPC   GL1 2751  16.470  10.760   6.562 -0.1100  0.0103 -0.2249
    1DPPC   GL2 2752  16.618  10.466   6.469 -0.1036 -0.0012  0.0449
    1DPPC   C1A 2753  16.429  10.912   6.196 -0.1401 -0.3050  0.2121
    1DPPC   C2A 2754  16.271  10.993   5.815  0.2040  0.1357  0.1522
    1DPPC   C3A 2755  16.320  10.908   5.352 -0.3590  0.2703  0.2233
    1DPPC   C4A 2756  16.100  10.881   4.929 -0.0806  0.1481  0.0846
    1DPPC   C1B 2757  16.600  10.340   6.125 -0.2272  0.0597  0.3587
    1DPPC   C2B 2758  16.424  10.375   5.643 -0.2628  0.0879  0.2409
    1DPPC   C3B 2759  16.438  10.439   5.266  0.0470 -0.2348  0.1406
    1DPPC   C4B 2760  16.529  10.645   4.914  0.1537  0.0950  0.3063
    1DPPC   NC3 2761  11.241   7.444   7.794  0.0477  0.1363  0.1510
    1DPPC   PO4 2762  11.232   7.134   7.640  0.3729  0.2234  0.2124
    1DPPC   GL1 2763  11.292   6.935   7.238 -0.0926 -0.0514 -0.1235
    1DPPC   GL2 2764  11.538   6.780   7.034 -0.0069  0.1236  0.1693
    1DPPC   C1A 2765  11.076   7.020   6.817 -0.2184 -0.1286  0.0606
    1DPPC   C2A 2766  11.001   7.047   6.393  0.3984 -0.2478  0.2030
    1DPPC   C3A 2767  10.827   7.019   5.987 -0.2471  0.2052  0.1868
    1DPPC   C4A 2768  10.602   6.997   5.622 -0.1019  0.2248 -0.1466
    1DPPC   C1B 2769  11.442   6.636   6.664  0.2551 -0.1636  0.1558
    1DPPC   C2B 2770  11.415   6.755   6.171 -0.0408  0.0040  0.1778
    1DPPC   C3B 2771  11.157   6.770   5.741 -0.0515  0.0549 -0.1297
    1DPPC   C4B 2772  11.018   7.059   5.323 -0.0792  0.1679 -0.0082
    1DPPC   NC3 2773  15.512  22.225   7.475 -0.0352  0.0374  0.0234
    1DPPC   PO4 2774  15.639  22.077   6.976 -0.2343 -0.3074  0.0661
    1DPPC   GL1 2775  15.676  21.867   6.603 -0.0064 -0.0913 -0.0696
    1DPPC   GL2 2776  15.709  21.571   6.503 -0.0862 -0.3095  0.0909
    1DPPC   C1A 2777  15.812  22.138   6.208  0.2009 -0.0654 -0.0728
    1DPPC   C2A 2778  15.876  22.333   5.770 -0.1986  0.1032  0.1027
    1DPPC   C3A 2779  15.732  22.520   5.415 -0.0604  0.1563 -0.0603
    1DPPC   C4A 2780  15.940  22.518   5.033  0.0603 -0.3087  0.2107
    1DPPC   C1B 2781  15.909  21.680   6.111 -0.3374  0.0270  0.0256
    1DPPC   C2B 2782  15.724  21.881   5.781  0.1094 -0.1874 -0.2003
    1DPPC   C3B 2783  15.704  21.944   5.436 -0.1736  0.3165  0.1215
    1DPPC   C4B 2784  15.836  21.969   4.975  0.0117 -0.1264 -0.0457
    1DPPC   NC3 2785  14.362  20.149   6.793 -0.1422  0.1683 -0.0959
    1DPPC   PO4 2786  14.186  20.540   6.697 -0.0650 -0.1693  0.1474
    1DPPC   GL1 2787  14.380  20.513   6.414  0.1600 -0.1964  0.3152
    1DPPC   GL2 2788  14.389  20.111   6.256  0.1993  0.1739 -0.0001
    1DPPC   C1A 2789  14.428  20.494   5.913  0.1435  0.0149 -0.0970
    1DPPC   C2A 2790  14.363  20.602   5.563 -0.0544  0.2055 -0.0404
    1DPPC   C3A 2791  14.397  20.458   5.147 -0.0045 -0.0601  0.0145
    1DPPC   C4A 2792  14.260  20.436   4.769 -0.0617 -0.1286  0.0727
    1DPPC   C1B 2793  14.496  20.000   5.842  0.0262  0.1622  0.1821
    1DPPC   C2B 2794  14.699  20.179   5.502  0.2659  0.2152 -0.1312
    1DPPC   C3B 2795  14.831  20.249   5.008  0.2912 -0.1028 -0.1738
    1DPPC   C4B 2796  15.233  20.273   4.835 -0.1801 -0.0009 -0.0776
    1DPPC   NC3 2797  11.728  17.014   6.746 -0.0691 -0.0671 -0.1671
    1DPPC   PO4 2798  11.477  17.453   6.816  0.1247  0.2681  0.0766
    1DPPC   GL1 2799  11.463  17.344   6.436  0.0800  0.1113  0.2397
    1DPPC   GL2 2800  11.250  17.495   6.255 -0.1788 -0.1752  0.1819
    1DPPC   C1A 2801  11.674  17.243   6.041  0.3947 -0.1710 -0.1017
    1DPPC   C2A 2802  11.649  17.133   5.627 -0.1015 -0.1260 -0.0480
    1DPPC   C3A 2803  11.547  17.268   5.194 -0.1136 -0.2800  0.1671
    1DPPC   C4A 2804  11.661  17.204   4.692 -0.2863 -0.0730 -0.0167
    1DPPC   C1B 2805  11.306  17.589   5.820 -0.2936 -0.0190 -0.0768
    1DPPC   C2B 2806  11.337  17.646   5.430 -0.0578 -0.0287  0.0132
    1DPPC   C3B 2807  11.187  17.729   5.022  0.3926  0.0610 -0.0419
    1DPPC   C4B 2808  11.281  17.956   4.653  0.2971  0.2027  0.0027
    1DPPC   NC3 2809  19.376  14.081   7.029  0.1059 -0.2276  0.0079
    1DPPC   PO4 2810  19.572  14.161   6.573  0.0299  0.1279  0.1356
    1DPPC   GL1 2811  19.644  14.107   6.142 -0.2551  0.0765  0.1704
    1DPPC   GL2 2812  19.711  14.325   5.927 -0.3051 -0.0386 -0.1950
    1DPPC   C1A 2813  19.727  13.867   5.720 -0.0332 -0.2249 -0.1630
    1DPPC   C2A 2814  19.690  13.869   5.321  0.0360  0.1919  0.0172
    1DPPC   C3A 2815  19.696  13.831   4.876 -0.0839 -0.1669  0.1945
    1DPPC   C4A 2816  19.669  13.648   4.509 -0.1279 -0.1752  0.0295
    1DPPC   C1B 2817  19.595  14.474   5.599 -0.0119 -0.2361 -0.2239
    1DPPC   C2B 2818  19.540  14.386   5.206  0.0402  0.3720  0.1211
    1DPPC   C3B 2819  19.287  14.481   4.766  0.1559 -0.1301  0.4611
    1DPPC   C4B 2820  18.900  14.484   4.544  0.3214 -0.0035 -0.0462
    1DPPC   NC3 2821  19.190   7.479   6.967  0.2130  0.1196 -0.2315
    1DPPC   PO4 2822  18.809   7.593   6.976 -0.0207  0.1519 -0.4599
    1DPPC   GL1 2823  18.666   7.562   6.636 -0.0320  0.2536 -0.1067
    1DPPC   GL2 2824  18.969   7.780   6.429 -0.0818 -0.1031 -0.1287
    1DPPC   C1A 2825  18.650   7.297   6.186 -0.0293  0.0733  0.4091
    1DPPC   C2A 2826  18.445   7.224   5.805  0.2440 -0.1951 -0.2349
    1DPPC   C3A 2827  18.331   7.014   5.446 -0.0981  0.2654 -0.2370
    1DPPC   C4A 2828  18.355   6.618   5.299 -0.0842  0.0102  0.2203
    1DPPC   C1B 2829  19.086   7.603   6.032 -0.0709  0.0598 -0.1172
    1DPPC   C2B 2830  18.960   7.302   5.771  0.1457 -0.1171  0.2862
    1DPPC   C3B 2831  18.813   6.953   5.548  0.0317  0.0161 -0.1939
    1DPPC   C4B 2832  18.840   6.739   5.177  0.0418  0.1020 -0.0119
    1DPPC   NC3 2833  18.001  21.914   6.426 -0.0380  0.0038  0.3638
    1DPPC   PO4 2834  18.312  21.611   6.329 -0.0189 -0.2809  0.1204
    1DPPC   GL1 2835  18.505  21.700   5.982 -0.1736 -0.3367  0.2937
    1DPPC   GL2 2836  18.227  21.897   5.842 -0.0514  0.3481  0.0914
    1DPPC   C1A 2837  18.537  21.396   5.637  0.1267  0.1993 -0.1079
    1DPPC   C2A 2838  18.531  21.193   5.243 -0.0267  0.2681  0.0655
    1DPPC   C3A 2839  18.258  21.070   4.901 -0.0007  0.1309  0.0433
    1DPPC   C4A 2840  17.806  20.959   4.804 -0.0932 -0.3390 -0.1953
    1DPPC   C1B 2841  18.369  21.916   5.488  0.2654  0.0085  0.2465
    1DPPC   C2B 2842  18.508  21.865   5.041  0.0181 -0.0384  0.0208
    1DPPC   C3B 2843  18.603  21.433   4.806  0.0292 -0.3099  0.0855
    1DPPC   C4B 2844  18.575  21.176   4.486 -0.0988 -0.1131 -0.2078
    1DPPC   NC3 2845  13.973   9.214   7.880 -0.1234 -0.1495 -0.1502
    1DPPC   PO4 2846  14.247   9.236   7.607  0.4127 -0.0293  0.2961
    1DPPC   GL1 2847  14.060   9.513   7.182 -0.4135  0.4120  0.0346
    1DPPC   GL2 2848  14.316   9.562   6.999  0.2610  0.1033  0.1398
    1DPPC   C1A 2849  13.880   9.375   6.773  0.3459  0.0795 -0.0471
    1DPPC   C2A 2850  13.629   9.391   6.340 -0.1785  0.0286 -0.1896
    1DPPC   C3A 2851  13.481   9.540   5.888  0.0310 -0.0690  0.3356
    1DPPC   C4A 2852  13.645   9.548   5.457 -0.1386 -0.1820 -0.2424
    1DPPC   C1B 2853  14.240   9.662   6.594 -0.0750  0.1132 -0.2280
    1DPPC   C2B 2854  14.237   9.479   6.188  0.1094 -0.0115  0.0389
    1DPPC   C3B 2855  14.409   9.144   5.869 -0.1683  0.2402 -0.2353
    1DPPC   C4B 2856  14.483   8.973   5.494  0.1867  0.1278  0.0995
    1DPPC   NC3 2857  12.162  20.281   7.093 -0.4964  0.2755  0.0568
    1DPPC   PO4 2858  12.630  20.171   7.001  0.0335 -0.0072  0.2038
    1DPPC   GL1 2859  12.750  20.089   6.594  0.0803  0.1269  0.3790
    1DPPC   GL2 2860  13.046  20.096   6.443  0.0966 -0.1258  0.1309
    1DPPC   C1A 2861  12.555  20.244   6.215  0.0610  0.3711  0.2940
    1DPPC   C2A 2862  12.534  20.249   5.790 -0.0741 -0.0342 -0.1276
    1DPPC   C3A 2863  12.374  20.094   5.376  0.0894  0.1678 -0.0938
    1DPPC   C4A 2864  12.512  20.134   4.929  0.2558 -0.1344  0.0104
    1DPPC   C1B 2865  13.123  20.174   6.033 -0.0883 -0.0880  0.0043
    1DPPC   C2B 2866  13.064  20.170   5.594  0.1280 -0.0359 -0.0337
    1DPPC   C3B 2867  12.884  20.081   5.288 -0.0238  0.1224 -0.0048
    1DPPC   C4B 2868  12.933  19.832   4.873  0.1069 -0.2751 -0.1259
    1DPPC   NC3 2869   7.056  16.995   6.485 -0.2044 -0.3602  0.1697
    1DPPC   PO4 2870   6.933  16.552   6.737 -0.2108 -0.0058  0.0258
    1DPPC   GL1 2871   6.836  16.529   6.321  0.2783 -0.0565  0.0343
    1DPPC   GL2 2872   6.989  16.316   6.224 -0.0154  0.1591 -0.0309
    1DPPC   C1A 2873   6.783  16.511   5.784  0.2187 -0.2653  0.2396
    1DPPC   C2A 2874   6.702  16.705   5.262 -0.0787 -0.0212 -0.4594
    1DPPC   C3A 2875   6.922  16.737   4.920 -0.2526 -0.0501  0.2882
    1DPPC   C4A 2876   7.038  17.061   4.536 -0.1715 -0.0738  0.0694
    1DPPC   C1B 2877   7.287  16.214   5.904 -0.3056 -0.0920 -0.0973
    1DPPC   C2B 2878   7.421  15.972   5.561 -0.2336 -0.3615  0.1360
    1DPPC   C3B 2879   7.460  15.911   5.147 -0.0422 -0.1876 -0.2916
    1DPPC   C4B 2880   7.284  15.780   4.624  0.2253  0.1731 -0.1686
    1DPPC   NC3 2881  19.771  14.944   6.776 -0.1023 -0.0185 -0.1846
    1DPPC   PO4 2882  20.031  14.941   6.503  0.0275  0.1567 -0.0513
    1DPPC   GL1 2883  20.062  14.754   6.115  0.0573  0.2489 -0.0537
    1DPPC   GL2 2884  20.378  14.604   5.915  0.1297 -0.2366  0.1035
    1DPPC   C1A 2885  19.951  14.787   5.609 -0.0891 -0.0309  0.2129
    1DPPC   C2A 2886  19.967  14.650   5.213 -0.0644 -0.0551 -0.1971
    1DPPC   C3A 2887  19.863  14.456   4.804  0.0469  0.1742 -0.1487
    1DPPC   C4A 2888  19.692  14.195   4.576  0.2529  0.2184 -0.0144
    1DPPC   C1B 2889  20.431  14.576   5.527 -0.0274 -0.2319 -0.0709
    1DPPC   C2B 2890  20.462  14.528   5.066  0.2235  0.2953 -0.0048
    1DPPC   C3B 2891  20.329  14.606   4.669  0.2111  0.0054  0.2196
    1DPPC   C4B 2892  20.087  14.633   4.334  0.3150 -0.2281 -0.2460
    1DPPC   NC3 2893  14.383  14.492   7.229 -0.1507 -0.4161 -0.2054
    1DPPC   PO4 2894  14.600  14.154   6.911  0.1617 -0.2738  0.0562
    1DPPC   GL1 2895  14.568  13.804   6.643  0.0547 -0.1226 -0.1178
    1DPPC   GL2 2896  14.216  13.770   6.725 -0.1439 -0.1096  0.1888
    1DPPC   C1A 2897  14.636  13.779   6.195  0.0966  0.4210  0.0377
    1DPPC   C2A 2898  14.835  13.894   5.887  0.0070 -0.2086 -0.0936
    1DPPC   C3A 2899  14.765  13.882   5.470  0.1139 -0.4552 -0.3213
    1DPPC   C4A 2900  14.596  13.812   5.049  0.1277  0.1265  0.1682
    1DPPC   C1B 2901  14.171  13.923   6.291  0.0009 -0.0399  0.1062
    1DPPC   C2B 2902  14.298  13.818   5.816 -0.3640  0.2442 -0.0930
    1DPPC   C3B 2903  14.247  13.739   5.354  0.0248  0.1970  0.1938
    1DPPC   C4B 2904  13.836  13.684   5.262  0.2090 -0.1102 -0.0287
    1DPPC   NC3 2905  11.350   8.188   7.904 -0.1668  0.2240 -0.0239
    1DPPC   PO4 2906  11.021   7.873   7.748 -0.3263 -0.2663  0.0627
    1DPPC   GL1 2907  10.946   7.653   7.297 -0.2701  0.0927 -0.0144
    1DPPC   GL2 2908  10.811   7.833   7.053 -0.2203 -0.1601  0.2736
    1DPPC   C1A 2909  10.965   7.483   6.786  0.0985  0.3685 -0.0296
    1DPPC   C2A 2910  11.216   7.513   6.414  0.1356 -0.1284  0.0221
    1DPPC   C3A 2911  11.312   7.251   6.053  0.0102 -0.2791 -0.0846
    1DPPC   C4A 2912  11.640   7.022   5.804 -0.1475  0.3376  0.2290
    1DPPC   C1B 2913  11.259   7.839   6.890 -0.5279 -0.1528  0.1158
    1DPPC   C2B 2914  11.483   8.022   6.648 -0.0857  0.2731 -0.0944
    1DPPC   C3B 2915  11.670   7.745   6.339  0.1891 -0.4177 -0.0381
    1DPPC   C4B 2916  11.841   7.419   6.054 -0.2629 -0.0994  0.0758
    1DPPC   NC3 2917  20.192  18.720   6.521 -0.0826  0.1194  0.0221
    1DPPC   PO4 2918  19.838  18.475   6.368  0.2531 -0.1161  0.0523
    1DPPC   GL1 2919  19.933  18.457   5.992 -0.1716 -0.1717 -0.0501
    1DPPC   GL2 2920  20.218  18.640   6.027  0.4328  0.2831 -0.2294
    1DPPC   C1A 2921  20.091  18.588   5.511  0.0771 -0.0867 -0.1568
    1DPPC   C2A 2922  20.075  18.475   5.043  0.3090 -0.0519 -0.2488
    1DPPC   C3A 2923  20.427  18.473   4.781 -0.1304 -0.0110 -0.2650
    1DPPC   C4A 2924  20.914  18.332   4.814  0.2339  0.1286 -0.1013
    1DPPC   C1B 2925  19.771  18.861   5.705 -0.0646 -0.0859 -0.2559
    1DPPC   C2B 2926  19.750  18.887   5.164 -0.1260 -0.1780 -0.1755
    1DPPC   C3B 2927  19.724  18.759   4.773 -0.1614  0.0490  0.0910
    1DPPC   C4B 2928  19.941  18.407   4.529  0.4769  0.1487 -0.1841
    1DPPC   NC3 2929  18.463  19.153   6.416  0.0111 -0.0023 -0.0059
    1DPPC   PO4 2930  18.834  19.087   6.421 -0.1585  0.3495 -0.4779
    1DPPC   GL1 2931  18.868  19.250   6.056 -0.0827  0.2790 -0.3225
    1DPPC   GL2 2932  18.971  19.572   5.951 -0.2089  0.0016  0.0062
    1DPPC   C1A 2933  18.839  19.157   5.654  0.0086  0.0072  0.1675
    1DPPC   C2A 2934  18.716  19.121   5.188  0.1681 -0.2866 -0.1376
    1DPPC   C3A 2935  18.423  18.829   4.848 -0.2800 -0.2139 -0.2225
    1DPPC   C4A 2936  18.186  18.960   4.501  0.3053 -0.2650  0.3500
    1DPPC   C1B 2937  18.715  19.633   5.563 -0.5082 -0.1032 -0.1095
    1DPPC   C2B 2938  18.584  19.941   5.333  0.3426  0.2221  0.0153
    1DPPC   C3B 2939  18.808  20.203   5.071  0.3445  0.0105  0.0134
    1DPPC   C4B 2940  18.841  20.209   4.622 -0.0239  0.1382  0.1814
    1DPPC   NC3 2941  15.115  11.012   7.729  0.0967 -0.0329 -0.0667
    1DPPC   PO4 2942  15.050  11.431   7.553  0.1550 -0.2627  0.0985
    1DPPC   GL1 2943  15.001  11.398   7.099  0.1307 -0.4335  0.0826
    1DPPC   GL2 2944  15.212  11.766   6.952 -0.0043 -0.0525  0.1208
    1DPPC   C1A 2945  14.980  11.399   6.638 -0.2327  0.0314 -0.1642
    1DPPC   C2A 2946  14.885  11.359   6.299  0.0604 -0.0623 -0.2896
    1DPPC   C3A 2947  14.815  11.319   5.948 -0.0411 -0.1885  0.1513
    1DPPC   C4A 2948  14.824  11.356   5.526  0.1475 -0.0665  0.1756
    1DPPC   C1B 2949  15.323  11.763   6.465 -0.1030 -0.1857  0.4501
    1DPPC   C2B 2950  15.371  11.822   6.030 -0.2023 -0.1659  0.6540
    1DPPC   C3B 2951  15.195  11.742   5.622  0.0624  0.2619  0.3378
    1DPPC   C4B 2952  15.122  11.606   5.143 -0.1058  0.1172 -0.5382
    1DPPC   NC3 2953  26.667   7.167   6.212 -0.0893  0.1131 -0.3217
    1DPPC   PO4 2954  26.925   7.227   6.069  0.0254 -0.1300 -0.1055
    1DPPC   GL1 2955  27.181   7.466   5.755 -0.3043 -0.2045  0.1575
    1DPPC   GL2 2956  27.324   7.705   5.919  0.1716 -0.2131 -0.2028
    1DPPC   C1A 2957  27.309   7.294   5.441  0.1908 -0.0812 -0.2922
    1DPPC   C2A 2958  27.356   7.160   4.953 -0.2044  0.0999 -0.1103
    1DPPC   C3A 2959  27.353   7.091   4.459 -0.1088  0.0999 -0.2996
    1DPPC   C4A 2960  27.025   7.300   4.324  0.2910  0.1635 -0.0263
    1DPPC   C1B 2961  27.450   7.879   5.533  0.0819 -0.0091 -0.3510
    1DPPC   C2B 2962  27.745   8.090   5.404  0.0478  0.1370 -0.2026
    1DPPC   C3B 2963  27.993   8.320   5.062 -0.0582  0.0187  0.1576
    1DPPC   C4B 2964  28.203   8.523   4.800  0.1138  0.2006  0.1437
    1DPPC   NC3 2965  10.243   9.622   7.537 -0.1891  0.0097 -0.2925
    1DPPC   PO4 2966  10.716   9.843   7.620  0.3333  0.2359 -0.2590
    1DPPC   GL1 2967  10.844   9.680   7.241  0.0489 -0.1110 -0.2653
    1DPPC   GL2 2968  10.624   9.515   7.170 -0.2070  0.2535  0.0226
    1DPPC   C1A 2969  10.835   9.929   6.960 -0.0051 -0.1167 -0.1338
    1DPPC   C2A 2970  10.735   9.780   6.486 -0.1711  0.0870 -0.0582
    1DPPC   C3A 2971  10.532   9.731   6.209  0.0371  0.0139 -0.2070
    1DPPC   C4A 2972  10.474   9.968   5.948 -0.0822  0.2118 -0.2517
    1DPPC   C1B 2973  10.615   9.325   6.854  0.2066 -0.3301  0.1405
    1DPPC   C2B 2974  10.450   9.184   6.509  0.1559  0.2712  0.2104
    1DPPC   C3B 2975  10.218   9.357   6.195  0.1783 -0.0466  0.2459
    1DPPC   C4B 2976   9.950   9.584   5.872  0.1303  0.0908  0.1474
    1DPPC   NC3 2977  16.724   9.513   6.835 -0.0733  0.2879  0.3282
    1DPPC   PO4 2978  17.163   9.670   6.861  0.2669  0.0456  0.1648
    1DPPC   GL1 2979  17.036   9.629   6.358  0.1179 -0.0385  0.0764
    1DPPC   GL2 2980  17.340   9.888   6.266  0.1093  0.1297 -0.3173
    1DPPC   C1A 2981  16.697   9.838   6.160  0.1456  0.0863 -0.2249
    1DPPC   C2A 2982  16.498   9.917   5.802 -0.2152  0.2833 -0.1605
    1DPPC   C3A 2983  16.475   9.835   5.368  0.1142  0.3222  0.2358
    1DPPC   C4A 2984  16.198   9.685   4.991  0.0929  0.0917 -0.0781
    1DPPC   C1B 2985  17.303   9.796   5.847 -0.4408  0.1136 -0.0588
    1DPPC   C2B 2986  17.419   9.727   5.454  0.3320  0.3215  0.0536
    1DPPC   C3B 2987  17.395   9.653   4.974 -0.1626 -0.0832 -0.0285
    1DPPC   C4B 2988  17.224   9.593   4.544 -0.1966 -0.2025  0.0812
    1DPPC   NC3 2989  29.490  19.103   5.921  0.1110 -0.1054  0.0707
    1DPPC   PO4 2990  29.374  18.926   5.562 -0.0538 -0.1628 -0.0382
    1DPPC   GL1 2991  29.357  18.832   5.140 -0.2000  0.3168 -0.0949
    1DPPC   GL2 2992  29.636  19.078   5.039  0.1335 -0.1427 -0.3754
    1DPPC   C1A 2993  29.459  18.638   4.665 -0.2009 -0.0762 -0.0819
    1DPPC   C2A 2994  29.636  18.604   4.312  0.1485 -0.1258  0.3481
    1DPPC   C3A 2995  29.901  18.530   3.914  0.0652 -0.4586 -0.0787
    1DPPC   C4A 2996  29.943  18.232   3.578  0.1411 -0.4926  0.1299
    1DPPC   C1B 2997  29.375  19.208   4.656 -0.2484  0.1537 -0.1461
    1DPPC   C2B 2998  29.264  19.400   4.290 -0.1971 -0.0010  0.1168
    1DPPC   C3B 2999  29.434  19.760   4.137 -0.0320  0.0357  0.2716
    1DPPC   C4B 3000  29.887  19.909   4.216 -0.3088  0.1505 -0.1632
    1DPPC   NC3 3001  18.348   3.309   7.537 -0.0197  0.1605 -0.2838
    1DPPC   PO4 3002  18.699   3.561   7.419  0.2093 -0.0935  0.1886
    1DPPC   GL1 3003  18.588   3.514   6.946  0.0049 -0.3561  0.1403
    1DPPC   GL2 3004  18.376   3.765   6.728 -0.1459 -0.0487  0.1534
    1DPPC   C1A 3005  18.493   3.163   6.803 -0.0600  0.0558  0.1813
    1DPPC   C2A 3006  18.492   3.216   6.323 -0.3178 -0.3559  0.2315
    1DPPC   C3A 3007  18.590   3.426   5.928  0.0196 -0.0599  0.2800
    1DPPC   C4A 3008  18.575   3.758   5.670  0.0175  0.0082  0.0410
    1DPPC   C1B 3009  18.190   4.144   6.451 -0.2457  0.2031  0.3852
    1DPPC   C2B 3010  18.340   4.440   6.086 -0.0483  0.0351  0.0116
    1DPPC   C3B 3011  18.409   4.626   5.609 -0.0603 -0.5907  0.0359
    1DPPC   C4B 3012  18.661   4.907   5.366 -0.0194  0.0453  0.1409
    1DPPC   NC3 3013  16.083  22.480   6.786 -0.1934 -0.0563 -0.0392
    1DPPC   PO4 3014  16.356  22.821   6.685  0.1514 -0.4671 -0.1119
    1DPPC   GL1 3015  16.639  22.711   6.209 -0.1275 -0.1802 -0.1414
    1DPPC   GL2 3016  16.274  22.538   6.246 -0.2498 -0.1413 -0.2877
    1DPPC   C1A 3017  16.785  22.548   5.817  0.1290  0.1987 -0.3254
    1DPPC   C2A 3018  16.860  22.548   5.400 -0.1645 -0.1690  0.1718
    1DPPC   C3A 3019  16.894  22.444   5.030 -0.0972  0.1076 -0.0052
    1DPPC   C4A 3020  16.784  22.227   4.586 -0.1317 -0.0785 -0.0001
    1DPPC   C1B 3021  16.304  22.570   5.817 -0.0075 -0.1214  0.1383
    1DPPC   C2B 3022  16.406  22.421   5.369  0.0188 -0.1442  0.0216
    1DPPC   C3B 3023  16.482  22.711   5.038 -0.1855  0.0614 -0.1054
    1DPPC   C4B 3024  16.583  22.700   4.666 -0.0607  0.0724  0.0773
    1DPPC   NC3 3025  17.757  14.124   6.852 -0.0593 -0.0858 -0.0190
    1DPPC   PO4 3026  18.172  14.204   6.764 -0.0839 -0.0767 -0.1477
    1DPPC   GL1 3027  17.998  14.354   6.318  0.0738  0.3887  0.0486
    1DPPC   GL2 3028  18.242  14.216   6.092  0.1923 -0.0931 -0.1174
    1DPPC   C1A 3029  17.812  14.462   6.017  0.1482  0.1423  0.0810
    1DPPC   C2A 3030  17.786  14.429   5.573 -0.0412 -0.1984  0.2246
    1DPPC   C3A 3031  17.645  14.306   5.204 -0.0150  0.1481  0.1974
    1DPPC   C4A 3032  17.465  14.257   4.736 -0.0383  0.0335 -0.1896
    1DPPC   C1B 3033  18.214  14.285   5.689 -0.2362 -0.1334  0.1515
    1DPPC   C2B 3034  18.208  14.312   5.240 -0.1348 -0.0611  0.2519
    1DPPC   C3B 3035  17.978  14.275   4.793  0.0374 -0.0188 -0.2343
    1DPPC   C4B 3036  18.026  14.090   4.422  0.3970 -0.0590 -0.0492
    1DPPC   NC3 3037  28.747   4.690   6.252 -0.0218  0.2930  0.1654
    1DPPC   PO4 3038  29.089   4.668   6.414  0.1395 -0.1095 -0.1314
    1DPPC   GL1 3039  29.216   4.694   6.068 -0.0034 -0.1701 -0.1989
    1DPPC   GL2 3040  29.021   4.936   5.946  0.1089  0.1907  0.0904
    1DPPC   C1A 3041  29.330   4.741   5.628  0.0566 -0.4297  0.3405
    1DPPC   C2A 3042  29.198   4.476   5.279 -0.0838  0.0079 -0.2015
    1DPPC   C3A 3043  28.985   4.578   4.917 -0.0986  0.0550 -0.0852
    1DPPC   C4A 3044  28.818   4.360   4.553 -0.1055 -0.1281 -0.3022
    1DPPC   C1B 3045  29.197   5.284   5.650  0.0041  0.1656 -0.1794
    1DPPC   C2B 3046  29.156   5.439   5.317  0.0990 -0.2732 -0.0174
    1DPPC   C3B 3047  28.882   5.599   5.005 -0.1829  0.0556 -0.1123
    1DPPC   C4B 3048  28.849   5.904   4.743  0.0187 -0.4437 -0.0424
    1DPPC   NC3 3049  16.266  13.797   6.833  0.1885  0.4004 -0.0573
    1DPPC   PO4 3050  16.469  14.181   6.881 -0.1500 -0.1146  0.0607
    1DPPC   GL1 3051  16.491  14.191   6.479  0.0626 -0.1502  0.0114
    1DPPC   GL2 3052  16.272  14.198   6.393 -0.0318  0.1317 -0.2633
    1DPPC   C1A 3053  16.467  13.899   6.085  0.2585  0.0508  0.0969
    1DPPC   C2A 3054  16.422  13.818   5.621  0.1379  0.0061  0.0615
    1DPPC   C3A 3055  16.457  13.810   5.207 -0.0140 -0.0151 -0.1311
    1DPPC   C4A 3056  16.508  14.097   4.884 -0.0816 -0.0835  0.2107
    1DPPC   C1B 3057  16.217  14.314   5.999 -0.1159 -0.0862  0.0447
    1DPPC   C2B 3058  16.234  14.235   5.450 -0.0378  0.2998 -0.1440
    1DPPC   C3B 3059  16.100  14.172   5.138  0.3002 -0.1918  0.0563
    1DPPC   C4B 3060  15.910  14.175   4.743 -0.0585  0.3007 -0.1784
    1DPPC   NC3 3061  14.221   5.827   7.368 -0.0916 -0.1302  0.0501
    1DPPC   PO4 3062  13.917   5.588   7.321 -0.3052 -0.0000 -0.0776
    1DPPC   GL1 3063  13.824   5.949   7.107 -0.0189 -0.1701  0.0259
    1DPPC   GL2 3064  14.175   6.195   6.999  0.2131  0.2972 -0.4771
    1DPPC   C1A 3065  13.961   6.090   6.595 -0.0065  0.1143  0.1118
    1DPPC   C2A 3066  14.169   6.176   6.228 -0.1570 -0.1222 -0.2090
    1DPPC   C3A 3067  14.479   6.113   5.869 -0.2896 -0.0937  0.0338
    1DPPC   C4A 3068  14.752   5.942   5.605 -0.0549  0.0668  0.1520
    1DPPC   C1B 3069  14.459   6.205   6.649  0.0772 -0.1206  0.1487
    1DPPC   C2B 3070  14.623   6.464   6.366 -0.4448  0.0645  0.0616
    1DPPC   C3B 3071  14.657   6.728   6.025 -0.2545 -0.1511 -0.1535
    1DPPC   C4B 3072  14.913   6.941   5.814 -0.0517  0.1197  0.2064
    1DPPC   NC3 3073  14.007  21.034   6.871  0.1735 -0.3841  0.0549
    1DPPC   PO4 3074  13.560  21.252   6.738  0.0660  0.0312 -0.2969
    1DPPC   GL1 3075  13.739  21.382   6.373 -0.0584  0.0616 -0.1099
    1DPPC   GL2 3076  13.724  21.798   6.440 -0.2453 -0.0415  0.1435
    1DPPC   C1A 3077  13.790  21.295   5.921 -0.0445 -0.3703 -0.0943
    1DPPC   C2A 3078  13.817  21.242   5.464 -0.4056 -0.0448  0.2315
    1DPPC   C3A 3079  14.073  21.350   5.057 -0.0897  0.1695  0.0652
    1DPPC   C4A 3080  14.236  21.227   4.688  0.1661  0.4124  0.3040
    1DPPC   C1B 3081  13.849  21.854   5.990  0.0890 -0.0727 -0.3313
    1DPPC   C2B 3082  13.900  21.745   5.504 -0.3299 -0.0251  0.1694
    1DPPC   C3B 3083  13.976  21.945   5.086  0.0125 -0.1298 -0.2131
    1DPPC   C4B 3084  13.780  22.158   4.730 -0.0091  0.1682 -0.2193
    1DPPC   NC3 3085  21.292  14.700   6.182  0.0819  0.0068  0.1349
    1DPPC   PO4 3086  21.588  14.978   6.146  0.0987 -0.1413  0.2058
    1DPPC   GL1 3087  21.662  14.947   5.704 -0.1983  0.0027  0.0452
    1DPPC   GL2 3088  21.956  15.029   5.772 -0.0375  0.1895  0.1722
    1DPPC   C1A 3089  21.607  15.100   5.331  0.3008  0.2216  0.1816
    1DPPC   C2A 3090  21.697  15.116   4.933  0.1388  0.0509  0.0973
    1DPPC   C3A 3091  21.719  15.189   4.450 -0.0249 -0.2056  0.0333
    1DPPC   C4A 3092  21.872  14.938   4.124  0.0092 -0.0325 -0.3074
    1DPPC   C1B 3093  21.992  14.773   5.375 -0.1291 -0.1027  0.2947
    1DPPC   C2B 3094  22.131  14.769   4.953 -0.0871  0.0829  0.3661
    1DPPC   C3B 3095  22.133  14.633   4.508 -0.1164 -0.0093  0.2969
    1DPPC   C4B 3096  22.166  14.505   4.079  0.0211  0.1177  0.0230
    1DPPC   NC3 3097  15.285  18.729   6.773 -0.0795  0.2779 -0.2328
    1DPPC   PO4 3098  15.602  18.734   6.555  0.3140 -0.1148 -0.0320
    1DPPC   GL1 3099  15.884  18.562   6.274 -0.0835  0.2333 -0.0492
    1DPPC   GL2 3100  15.988  18.244   6.320  0.3551 -0.0543 -0.1175
    1DPPC   C1A 3101  15.804  18.672   5.844  0.3159  0.1776 -0.3183
    1DPPC   C2A 3102  15.912  18.540   5.502 -0.1971 -0.0865  0.2000
    1DPPC   C3A 3103  16.107  18.509   5.089  0.0736 -0.3151 -0.0723
    1DPPC   C4A 3104  16.320  18.412   4.662  0.0355 -0.0389  0.1214
    1DPPC   C1B 3105  15.708  18.155   5.916 -0.0010 -0.1217  0.0675
    1DPPC   C2B 3106  15.706  17.978   5.509  0.1565  0.1192 -0.0270
    1DPPC   C3B 3107  15.843  18.053   5.180 -0.2850  0.3366  0.0292
    1DPPC   C4B 3108  15.892  18.143   4.727  0.2839  0.4279 -0.0090
    1DPPC   NC3 3109  10.685   9.346   7.625 -0.1294 -0.0433 -0.1262
    1DPPC   PO4 3110  11.060   9.271   7.448  0.3827 -0.1893  0.2277
    1DPPC   GL1 3111  11.385   9.273   7.106 -0.1506  0.0517  0.0624
    1DPPC   GL2 3112  11.345   9.568   7.063  0.0345 -0.0478  0.1212
    1DPPC   C1A 3113  11.504   9.412   6.614 -0.1308  0.1261 -0.1651
    1DPPC   C2A 3114  11.354   9.331   6.227  0.2049 -0.2080 -0.3547
    1DPPC   C3A 3115  11.236   9.215   5.844 -0.2183  0.1836 -0.1853
    1DPPC   C4A 3116  10.953   9.014   5.613 -0.0322  0.0726  0.0136
    1DPPC   C1B 3117  11.055   9.478   6.806  0.0047 -0.1570 -0.1708
    1DPPC   C2B 3118  10.890   9.320   6.410  0.1876 -0.0025  0.0334
    1DPPC   C3B 3119  10.813   9.359   6.017  0.4966  0.0593 -0.1852
    1DPPC   C4B 3120  10.464   9.480   5.749 -0.0511  0.1902  0.1205
    1DPPC   NC3 3121  13.524  22.229   6.664  0.0377 -0.0876 -0.1162
    1DPPC   PO4 3122  13.991  22.073   6.875 -0.1836 -0.2022 -0.1205
    1DPPC   GL1 3123  14.131  22.084   6.459  0.0022  0.0209 -0.2760
    1DPPC   GL2 3124  13.926  22.275   6.277 -0.1869 -0.0629  0.2046
    1DPPC   C1A 3125  14.350  21.863   6.190  0.0437  0.0452  0.1395
    1DPPC   C2A 3126  14.343  21.767   5.766  0.0380 -0.2192  0.3443
    1DPPC   C3A 3127  14.364  21.719   5.294  0.2695 -0.1051 -0.1268
    1DPPC   C4A 3128  14.470  21.767   4.920  0.1486  0.1934 -0.0544
    1DPPC   C1B 3129  14.159  22.258   5.871  0.2040  0.0395 -0.1897
    1DPPC   C2B 3130  14.261  22.260   5.414 -0.0859  0.2920 -0.0075
    1DPPC   C3B 3131  14.295  22.355   5.030 -0.0674  0.2625  0.0499
    1DPPC   C4B 3132  14.089  22.589   4.835  0.0786  0.1655  0.3790
    1DPPC   NC3 3133  16.805  11.815   6.661  0.0390 -0.1730 -0.3065
    1DPPC   PO4 3134  17.088  11.522   6.679 -0.0596  0.0404 -0.1045
    1DPPC   GL1 3135  16.945  11.371   6.263  0.0713 -0.1296  0.0148
    1DPPC   GL2 3136  16.779  11.649   6.184 -0.1620 -0.1441  0.1524
    1DPPC   C1A 3137  16.811  11.328   5.808 -0.0343 -0.0939  0.2356
    1DPPC   C2A 3138  16.713  11.278   5.421 -0.0522 -0.0633  0.1780
    1DPPC   C3A 3139  16.517  11.267   5.035  0.2258  0.0771 -0.1279
    1DPPC   C4A 3140  16.525  11.194   4.566 -0.3018 -0.1006 -0.1708
    1DPPC   C1B 3141  16.790  11.815   5.897  0.1721 -0.0429  0.0156
    1DPPC   C2B 3142  16.618  11.758   5.556 -0.0474 -0.1025 -0.0613
    1DPPC   C3B 3143  16.404  11.759   5.202 -0.2453  0.2263  0.0269
    1DPPC   C4B 3144  16.345  11.848   4.796  0.0421 -0.1635 -0.0310
    1DPPC   NC3 3145  11.750  19.449   6.861 -0.0780  0.2420 -0.3846
    1DPPC   PO4 3146  11.983  19.031   6.736  0.0844 -0.1231 -0.0282
    1DPPC   GL1 3147  12.076  19.258   6.381  0.1027 -0.3371  0.0430
    1DPPC   GL2 3148  12.200  19.496   6.332  0.0374  0.2196  0.2504
    1DPPC   C1A 3149  12.164  19.297   5.903 -0.3156 -0.2483  0.0076
    1DPPC   C2A 3150  12.223  19.249   5.475  0.0809 -0.0364 -0.0902
    1DPPC   C3A 3151  12.137  18.979   5.100  0.0338 -0.3998  0.0177
    1DPPC   C4A 3152  12.038  19.141   4.841  0.3549 -0.0252  0.1278
    1DPPC   C1B 3153  12.570  19.139   6.137 -0.0627  0.1186 -0.2590
    1DPPC   C2B 3154  12.650  19.122   5.693  0.1102 -0.1582  0.3334
    1DPPC   C3B 3155  12.624  19.026   5.375 -0.3683  0.2032 -0.0208
    1DPPC   C4B 3156  12.581  18.991   4.992 -0.3383 -0.0575  0.0257
    1DPPC   NC3 3157   0.737   4.204   7.110 -0.0757 -0.0134  0.0621
    1DPPC   PO4 3158   0.940   3.860   6.922  0.1652  0.3149  0.0530
    1DPPC   GL1 3159   1.065   3.892   6.423  0.0788 -0.1141  0.2697
    1DPPC   GL2 3160   1.193   4.214   6.349 -0.1307  0.2485  0.2014
    1DPPC   C1A 3161   1.224   3.928   5.944 -0.0749  0.1892  0.1443
    1DPPC   C2A 3162   1.315   4.035   5.551  0.3123 -0.1860 -0.2106
    1DPPC   C3A 3163   1.549   3.953   5.162  0.0770 -0.0252 -0.0647
    1DPPC   C4A 3164   1.735   3.798   4.830 -0.1599  0.0651 -0.1497
    1DPPC   C1B 3165   1.630   4.313   6.097 -0.3993  0.0801 -0.1853
    1DPPC   C2B 3166   1.786   4.401   5.725  0.4463  0.2821  0.1191
    1DPPC   C3B 3167   1.600   4.433   5.247  0.0007  0.1027 -0.0822
    1DPPC   C4B 3168   1.543   4.339   4.804  0.0175 -0.1576  0.0807
    1DPPC   NC3 3169   7.739  18.232   6.869  0.0311 -0.0662 -0.0488
    1DPPC   PO4 3170   7.649  18.539   6.497  0.2871 -0.0434  0.0653
    1DPPC   GL1 3171   7.340  18.557   6.228  0.0056  0.0950 -0.3382
    1DPPC   GL2 3172   7.302  18.306   6.036  0.3567  0.0378 -0.0751
    1DPPC   C1A 3173   7.282  18.712   5.736 -0.2186  0.0906  0.1519
    1DPPC   C2A 3174   7.248  18.393   5.331 -0.0433  0.0131  0.0722
    1DPPC   C3A 3175   7.302  18.090   4.930  0.0824 -0.3158 -0.3461
    1DPPC   C4A 3176   7.087  18.077   4.513 -0.0628  0.0930  0.0643
    1DPPC   C1B 3177   7.517  18.124   5.736 -0.2536 -0.1530 -0.0892
    1DPPC   C2B 3178   7.892  18.377   5.684  0.0683  0.0834  0.1452
    1DPPC   C3B 3179   8.175  18.248   5.533  0.2257 -0.1917 -0.3456
    1DPPC   C4B 3180   8.440  17.943   5.310 -0.4320  0.0519  0.0122
    1DPPC   NC3 3181  19.392   8.526   6.711 -0.2846 -0.0770 -0.0461
    1DPPC   PO4 3182  18.943   8.469   6.721 -0.0630  0.2770  0.0944
    1DPPC   GL1 3183  19.033   8.250   6.361 -0.1516 -0.0546  0.2398
    1DPPC   GL2 3184  19.284   8.503   6.225  0.0895  0.0677  0.0061
    1DPPC   C1A 3185  18.964   8.073   5.944 -0.0244 -0.2295 -0.0179
    1DPPC   C2A 3186  19.058   7.820   5.551 -0.1528 -0.1031 -0.1006
    1DPPC   C3A 3187  19.216   7.490   5.328 -0.1258 -0.3184  0.2611
    1DPPC   C4A 3188  19.117   7.379   4.933  0.1141  0.1301  0.1138
    1DPPC   C1B 3189  19.411   8.333   5.883 -0.0068 -0.0702  0.1539
    1DPPC   C2B 3190  19.527   8.193   5.538 -0.5071 -0.0880  0.3697
    1DPPC   C3B 3191  19.528   8.056   5.179 -0.2578  0.4606 -0.1943
    1DPPC   C4B 3192  19.346   7.775   4.906 -0.0039 -0.0106  0.0340
    1DPPC   NC3 3193   7.365  15.598   7.145 -0.1047  0.1901  0.1534
    1DPPC   PO4 3194   7.505  15.457   6.817  0.2710  0.1580  0.0262
    1DPPC   GL1 3195   7.585  15.099   6.556  0.2182 -0.1350  0.0644
    1DPPC   GL2 3196   7.847  14.978   6.678 -0.0385 -0.0165 -0.1753
    1DPPC   C1A 3197   7.555  15.267   6.136 -0.0243  0.0190 -0.1340
    1DPPC   C2A 3198   7.494  15.294   5.710 -0.1385 -0.1886  0.0056
    1DPPC   C3A 3199   7.607  15.508   5.443 -0.2701 -0.2195  0.2358
    1DPPC   C4A 3200   7.698  15.381   5.063 -0.1436  0.0912 -0.0304
    1DPPC   C1B 3201   8.057  15.184   6.312  0.0281  0.1121 -0.0155
    1DPPC   C2B 3202   8.346  15.189   5.979  0.2164  0.1887 -0.0015
    1DPPC   C3B 3203   8.550  14.936   5.723  0.2502 -0.1413 -0.1251
    1DPPC   C4B 3204   8.460  14.594   5.576 -0.3278  0.1106  0.1025
    1DPPC   NC3 3205  18.598  16.929   6.919  0.2129 -0.0670 -0.2122
    1DPPC   PO4 3206  18.811  16.766   6.494 -0.0164 -0.1535  0.1596
    1DPPC   GL1 3207  18.761  16.685   6.101  0.1188  0.1945  0.2488
    1DPPC   GL2 3208  19.193  16.674   5.971 -0.1756  0.1487 -0.0495
    1DPPC   C1A 3209  18.615  16.750   5.725 -0.1237 -0.0605  0.0163
    1DPPC   C2A 3210  18.686  16.772   5.350  0.2378  0.0633  0.1743
    1DPPC   C3A 3211  18.529  16.853   4.989  0.1196  0.0230 -0.2392
    1DPPC   C4A 3212  18.545  17.007   4.575  0.1542 -0.0239 -0.0318
    1DPPC   C1B 3213  19.112  16.683   5.592 -0.1899 -0.1823 -0.0824
    1DPPC   C2B 3214  19.226  16.719   5.161  0.1051  0.1485  0.1062
    1DPPC   C3B 3215  19.123  16.769   4.754  0.1106  0.1179  0.3235
    1DPPC   C4B 3216  19.027  16.892   4.373 -0.0629 -0.1238 -0.0254
    1DPPC   NC3 3217  11.131  18.656   6.894  0.1499 -0.0076 -0.0670
    1DPPC   PO4 3218  10.849  18.850   6.686 -0.1678 -0.1555 -0.0912
    1DPPC   GL1 3219  10.633  18.755   6.350 -0.2856  0.1852  0.1556
    1DPPC   GL2 3220  10.629  19.060   6.214  0.3440  0.1729  0.1416
    1DPPC   C1A 3221  10.716  18.508   6.023  0.1911  0.0278 -0.3954
    1DPPC   C2A 3222  10.653  18.497   5.619 -0.1035 -0.2280 -0.1690
    1DPPC   C3A 3223  10.804  18.603   5.167 -0.0578 -0.1508 -0.1401
    1DPPC   C4A 3224  11.029  18.758   4.904  0.0464 -0.0162 -0.0989
    1DPPC   C1B 3225  10.742  19.086   5.768 -0.3570 -0.0111  0.2323
    1DPPC   C2B 3226  10.780  19.078   5.330  0.1084  0.0302 -0.2793
    1DPPC   C3B 3227  10.482  18.988   4.999  0.0595  0.1936  0.1656
    1DPPC   C4B 3228  10.172  18.944   4.602 -0.0058  0.1511  0.1685
    1DPPC   NC3 3229   2.436  16.695   5.455 -0.1029  0.2285  0.1184
    1DPPC   PO4 3230   2.467  16.193   5.470 -0.5078 -0.0511  0.0796
    1DPPC   GL1 3231   2.372  16.153   4.961  0.3265  0.1087  0.0339
    1DPPC   GL2 3232   2.056  16.168   4.918 -0.3534  0.2502  0.1682
    1DPPC   C1A 3233   2.362  15.784   4.681 -0.0499  0.0331  0.2242
    1DPPC   C2A 3234   2.330  15.472   4.323  0.0659  0.1969 -0.0385
    1DPPC   C3A 3235   2.140  15.188   4.015 -0.1547  0.0059  0.1244
    1DPPC   C4A 3236   2.044  14.717   3.937 -0.0174  0.1458 -0.0044
    1DPPC   C1B 3237   2.074  16.357   4.559  0.0309 -0.1126  0.2310
    1DPPC   C2B 3238   2.340  16.319   4.235  0.1393  0.1964  0.3506
    1DPPC   C3B 3239   2.412  16.526   3.927 -0.2671 -0.2914 -0.0650
    1DPPC   C4B 3240   2.287  16.589   3.452 -0.3274  0.2731 -0.0675
    1DPPC   NC3 3241  18.732  12.510   7.003 -0.2472 -0.0987  0.0166
    1DPPC   PO4 3242  18.378  12.389   6.657  0.3216  0.3661  0.0198
    1DPPC   GL1 3243  18.498  12.264   6.221  0.2500 -0.1404 -0.2383
    1DPPC   GL2 3244  18.443  11.962   6.057 -0.0560 -0.1518  0.0756
    1DPPC   C1A 3245  18.615  12.530   5.900 -0.0316  0.1611 -0.3217
    1DPPC   C2A 3246  18.573  12.486   5.442 -0.1343  0.1922  0.1093
    1DPPC   C3A 3247  18.626  12.496   5.009 -0.0190 -0.1395 -0.1848
    1DPPC   C4A 3248  18.552  12.730   4.653 -0.0415  0.0813 -0.1311
    1DPPC   C1B 3249  18.480  12.080   5.690  0.0012 -0.4940 -0.1246
    1DPPC   C2B 3250  18.518  12.054   5.271 -0.1353  0.1433 -0.2159
    1DPPC   C3B 3251  18.445  11.973   4.879  0.0962  0.0841 -0.1770
    1DPPC   C4B 3252  18.600  12.185   4.565  0.2585  0.0420 -0.2095
    1DPPC   NC3 3253  15.013   8.532   7.604  0.2072  0.3317 -0.2298
    1DPPC   PO4 3254  15.123   8.862   7.324 -0.0678 -0.0481  0.0549
    1DPPC   GL1 3255  14.746   8.874   6.996 -0.0769  0.0441  0.0415
    1DPPC   GL2 3256  14.477   9.078   7.120 -0.0794  0.4066  0.0186
    1DPPC   C1A 3257  14.646   8.808   6.655 -0.0539 -0.0366 -0.2821
    1DPPC   C2A 3258  14.533   8.901   6.279 -0.1660 -0.0833 -0.1090
    1DPPC   C3A 3259  14.539   8.644   5.900 -0.1825 -0.1085 -0.2118
    1DPPC   C4A 3260  14.798   8.496   5.570 -0.1909 -0.0964 -0.1757
    1DPPC   C1B 3261  14.325   9.170   6.715  0.1875 -0.2068 -0.0475
    1DPPC   C2B 3262  14.054   9.005   6.341  0.2068  0.0567  0.0783
    1DPPC   C3B 3263  13.569   8.927   6.162 -0.0348 -0.0837  0.0638
    1DPPC   C4B 3264  13.163   8.987   6.132  0.0326  0.2471 -0.0321
    1DPPC   NC3 3265  20.089  11.444   7.082 -0.0871 -0.1511  0.1568
    1DPPC   PO4 3266  19.983  11.387   6.681 -0.0074  0.0767 -0.1846
    1DPPC   GL1 3267  19.865  11.335   6.301 -0.0561  0.1065 -0.0227
    1DPPC   GL2 3268  20.041  11.169   6.165 -0.0352 -0.1959  0.1620
    1DPPC   C1A 3269  19.645  11.401   5.912 -0.2919  0.1627 -0.2210
    1DPPC   C2A 3270  19.593  11.407   5.468  0.1789  0.0887 -0.1705
    1DPPC   C3A 3271  19.619  11.276   5.035  0.0804 -0.1359  0.0790
    1DPPC   C4A 3272  19.731  11.069   4.702  0.2263  0.3772 -0.2375
    1DPPC   C1B 3273  20.051  11.211   5.710 -0.0684 -0.1558 -0.2033
    1DPPC   C2B 3274  20.021  11.230   5.332 -0.0226  0.0958 -0.0010
    1DPPC   C3B 3275  20.169  11.420   5.041 -0.0978 -0.2010  0.1539
    1DPPC   C4B 3276  20.192  11.246   4.571 -0.1364  0.2720  0.1560
    1DPPC   NC3 3277  19.317  12.670   6.532  0.0498  0.1191  0.3378
    1DPPC   PO4 3278  18.882  12.490   6.541 -0.1395  0.3811 -0.1406
    1DPPC   GL1 3279  19.026  12.576   6.145  0.2871 -0.0245  0.0883
    1DPPC   GL2 3280  18.924  12.917   6.241 -0.1783  0.2013  0.0441
    1DPPC   C1A 3281  19.093  12.723   5.820  0.1298  0.1315  0.2613
    1DPPC   C2A 3282  19.046  12.679   5.382 -0.1414 -0.2616 -0.1022
    1DPPC   C3A 3283  19.163  12.637   4.992 -0.0779  0.0213 -0.2797
    1DPPC   C4A 3284  19.223  12.459   4.619  0.0396 -0.0844  0.2781
    1DPPC   C1B 3285  18.734  13.015   5.811  0.0447 -0.0220  0.0030
    1DPPC   C2B 3286  18.707  13.019   5.397 -0.0411 -0.0185  0.0954
    1DPPC   C3B 3287  18.554  12.993   5.057 -0.0202 -0.1547  0.1458
    1DPPC   C4B 3288  18.892  13.104   4.828 -0.3667  0.0581 -0.1215
    1DPPC   NC3 3289  16.009  12.928   7.279 -0.0160 -0.0193  0.0679
    1DPPC   PO4 3290  16.365  12.661   6.983  0.1283 -0.1381 -0.2988
    1DPPC   GL1 3291  16.263  12.674   6.598  0.1561 -0.2741 -0.1752
    1DPPC   GL2 3292  16.190  12.961   6.392  0.0728 -0.0553  0.1685
    1DPPC   C1A 3293  16.177  12.452   6.256  0.0101 -0.1768 -0.0107
    1DPPC   C2A 3294  16.078  12.424   5.855  0.2067  0.2396 -0.2011
    1DPPC   C3A 3295  15.985  12.456   5.409  0.2215  0.0289 -0.0496
    1DPPC   C4A 3296  15.706  12.407   5.149  0.3620 -0.1623 -0.2885
    1DPPC   C1B 3297  16.081  12.982   6.058 -0.1295  0.2131 -0.1374
    1DPPC   C2B 3298  15.973  12.917   5.662  0.1884 -0.2425  0.1066
    1DPPC   C3B 3299  15.842  12.937   5.220 -0.2614  0.0750  0.0114
    1DPPC   C4B 3300  16.025  13.002   4.837 -0.1718 -0.7730 -0.1291
    1DPPC   NC3 3301  16.991  21.580   6.853 -0.0268 -0.3981 -0.3269
    1DPPC   PO4 3302  17.108  22.123   6.731  0.2784 -0.1341  0.1120
    1DPPC   GL1 3303  17.369  22.166   6.316 -0.2363  0.0250  0.1736
    1DPPC   GL2 3304  17.541  21.836   6.205  0.0064  0.2663  0.1046
    1DPPC   C1A 3305  17.368  22.345   5.980  0.1566 -0.1804  0.2460
    1DPPC   C2A 3306  17.362  22.382   5.487  0.0573 -0.0662 -0.1363
    1DPPC   C3A 3307  17.341  22.223   5.139  0.1634  0.2571 -0.1276
    1DPPC   C4A 3308  17.140  21.994   4.846 -0.0397  0.0878 -0.0709
    1DPPC   C1B 3309  17.446  21.848   5.723  0.0844  0.0112  0.2047
    1DPPC   C2B 3310  17.154  21.721   5.320  0.0139 -0.1429 -0.0621
    1DPPC   C3B 3311  17.035  21.536   4.957  0.0288  0.0056 -0.3829
    1DPPC   C4B 3312  16.718  21.518   4.656  0.0775 -0.2008 -0.1411
    1DPPC   NC3 3313   9.476  17.214   6.546 -0.0761  0.1377  0.1929
    1DPPC   PO4 3314  10.012  17.402   6.562 -0.0675 -0.0162 -0.2555
    1DPPC   GL1 3315  10.330  17.276   6.343  0.1764 -0.1148  0.1756
    1DPPC   GL2 3316  10.265  17.424   6.070  0.0852 -0.2945 -0.2638
    1DPPC   C1A 3317  10.599  17.011   6.127  0.0223 -0.1776  0.4317
    1DPPC   C2A 3318  10.744  17.050   5.720 -0.0379 -0.3417 -0.0753
    1DPPC   C3A 3319  10.677  16.987   5.246 -0.1364 -0.3169  0.3474
    1DPPC   C4A 3320  10.655  16.852   4.882 -0.1926  0.2127  0.1940
    1DPPC   C1B 3321  10.252  17.190   5.738 -0.1612 -0.0677  0.3231
    1DPPC   C2B 3322  10.244  17.214   5.330  0.0128  0.0122 -0.1154
    1DPPC   C3B 3323  10.170  17.169   4.957  0.1233 -0.0877  0.0756
    1DPPC   C4B 3324  10.292  17.055   4.520  0.0181  0.0916  0.0189
    1DPPC   NC3 3325  23.051  14.448   6.632 -0.0173 -0.0791 -0.1169
    1DPPC   PO4 3326  22.917  14.778   6.353 -0.2221 -0.1993  0.2278
    1DPPC   GL1 3327  22.967  14.706   5.901 -0.1823 -0.0860 -0.0706
    1DPPC   GL2 3328  22.904  14.889   5.595 -0.0060 -0.4947  0.0954
    1DPPC   C1A 3329  22.866  14.352   5.594  0.2178 -0.2381  0.2907
    1DPPC   C2A 3330  22.520  14.077   5.410  0.2742 -0.0346 -0.0894
    1DPPC   C3A 3331  22.345  13.839   5.144  0.1121 -0.0763  0.1584
    1DPPC   C4A 3332  22.127  13.448   5.209 -0.0945  0.0138  0.0914
    1DPPC   C1B 3333  22.724  14.882   5.146  0.0964  0.0992  0.0065
    1DPPC   C2B 3334  22.550  14.884   4.726 -0.0160 -0.0435 -0.0479
    1DPPC   C3B 3335  22.421  14.970   4.156 -0.1260  0.0517 -0.2709
    1DPPC   C4B 3336  22.344  14.812   3.767 -0.0077 -0.2400 -0.1902
    1DPPC   NC3 3337  18.797  14.760   6.687 -0.1100  0.0298  0.4031
    1DPPC   PO4 3338  19.285  14.877   6.724  0.1779  0.0736 -0.0029
    1DPPC   GL1 3339  19.206  14.908   6.312 -0.3955  0.0818  0.1793
    1DPPC   GL2 3340  18.940  15.076   6.281 -0.0344  0.0955  0.0281
    1DPPC   C1A 3341  19.079  14.815   5.872 -0.2463 -0.0230  0.1215
    1DPPC   C2A 3342  19.060  14.772   5.452 -0.1347 -0.1023 -0.1433
    1DPPC   C3A 3343  18.988  14.810   5.046 -0.0941  0.0359 -0.0334
    1DPPC   C4A 3344  19.119  14.956   4.631 -0.2601  0.0971  0.2069
    1DPPC   C1B 3345  18.662  15.060   5.903 -0.0041  0.1589  0.0994
    1DPPC   C2B 3346  18.632  15.074   5.592 -0.1500  0.0061  0.1494
    1DPPC   C3B 3347  18.585  15.071   5.198  0.1083 -0.4318 -0.2462
    1DPPC   C4B 3348  18.741  15.199   4.824  0.0003 -0.2447  0.1560
    1DPPC   NC3 3349  17.045  12.370   6.710 -0.1393  0.2226  0.2219
    1DPPC   PO4 3350  16.708  12.266   6.902 -0.0846 -0.0632 -0.0902
    1DPPC   GL1 3351  16.345  12.200   6.765  0.1086 -0.0056  0.1629
    1DPPC   GL2 3352  16.363  11.926   6.484 -0.0217  0.0461 -0.0053
    1DPPC   C1A 3353  15.838  12.289   6.582 -0.1620 -0.3415  0.0561
    1DPPC   C2A 3354  15.686  12.252   6.150 -0.0259  0.1425  0.1689
    1DPPC   C3A 3355  15.631  12.178   5.737  0.0233  0.0404  0.0811
    1DPPC   C4A 3356  15.468  12.025   5.343  0.0948 -0.2964 -0.2877
    1DPPC   C1B 3357  16.206  11.937   6.091  0.2662 -0.0056  0.2628
    1DPPC   C2B 3358  16.124  11.965   5.735  0.0702  0.3556 -0.0684
    1DPPC   C3B 3359  15.960  11.984   5.316 -0.1217 -0.0672  0.0047
    1DPPC   C4B 3360  15.864  12.035   4.855  0.2368  0.0077 -0.3929
    1DPPC   NC3 3361  27.050  10.742   6.219 -0.3747  0.2154 -0.1583
    1DPPC   PO4 3362  27.511  10.749   6.120  0.0123  0.0245  0.1494
    1DPPC   GL1 3363  27.535  10.716   5.661 -0.1011 -0.0467 -0.0669
    1DPPC   GL2 3364  27.223  10.573   5.552 -0.0150  0.0817  0.3067
    1DPPC   C1A 3365  27.799  10.646   5.222 -0.1251  0.0743  0.5019
    1DPPC   C2A 3366  27.817  10.595   4.747 -0.0327 -0.2016 -0.2299
    1DPPC   C3A 3367  27.905  10.367   4.325 -0.0643 -0.0333 -0.0353
    1DPPC   C4A 3368  27.842   9.986   4.134  0.2548 -0.2648 -0.1751
    1DPPC   C1B 3369  27.322  10.609   5.183 -0.2456  0.2489 -0.1827
    1DPPC   C2B 3370  27.290  10.639   4.773  0.4110 -0.2053  0.0107
    1DPPC   C3B 3371  27.454  10.602   4.424 -0.0075 -0.1964 -0.0106
    1DPPC   C4B 3372  27.648  10.682   4.046  0.3062 -0.1625  0.1692
    1DPPC   NC3 3373  23.429   3.241   7.350 -0.1006 -0.3090 -0.1157
    1DPPC   PO4 3374  23.542   3.294   6.853  0.1268 -0.3374 -0.0263
    1DPPC   GL1 3375  23.739   3.455   6.437  0.0574 -0.2157  0.2503
    1DPPC   GL2 3376  23.851   3.209   6.228  0.1712  0.1793  0.2721
    1DPPC   C1A 3377  23.834   3.786   6.173 -0.2381  0.0107 -0.3024
    1DPPC   C2A 3378  23.939   3.950   5.695 -0.1167 -0.1128  0.2812
    1DPPC   C3A 3379  24.044   4.071   5.239 -0.2052  0.2037  0.0500
    1DPPC   C4A 3380  23.983   4.211   4.841  0.0538 -0.1457  0.0410
    1DPPC   C1B 3381  23.981   3.432   5.743 -0.3987  0.0363 -0.0418
    1DPPC   C2B 3382  24.024   3.566   5.334  0.2842 -0.2344  0.1699
    1DPPC   C3B 3383  24.121   3.706   4.953  0.2591  0.0544  0.1916
    1DPPC   C4B 3384  24.096   3.779   4.509  0.0613 -0.1756 -0.2217
    1DPPC   NC3 3385  30.074  14.462   5.587  0.3680 -0.0525  0.0362
    1DPPC   PO4 3386  30.186  13.992   5.364  0.0029 -0.0262  0.2732
    1DPPC   GL1 3387  30.189  13.821   4.986 -0.0436  0.0355 -0.0129
    1DPPC   GL2 3388  30.074  13.508   4.996  0.3924  0.0589 -0.0599
    1DPPC   C1A 3389  30.463  13.909   4.544  0.1118 -0.0878 -0.2501
    1DPPC   C2A 3390  30.379  14.121   4.218 -0.2094 -0.0482 -0.0087
    1DPPC   C3A 3391  30.128  14.165   3.943  0.0817 -0.2200 -0.3840
    1DPPC   C4A 3392  30.206  14.355   3.621 -0.0809  0.0026 -0.0222
    1DPPC   C1B 3393  30.090  13.116   4.815  0.1606  0.4937  0.0490
    1DPPC   C2B 3394  29.854  12.751   4.561  0.0019  0.2292  0.1926
    1DPPC   C3B 3395  29.649  12.719   4.171  0.1539 -0.4169 -0.0562
    1DPPC   C4B 3396  29.405  12.865   3.810 -0.0321  0.1321 -0.0600
    1DPPC   NC3 3397   6.369   4.162   6.936  0.0966 -0.3608  0.2685
    1DPPC   PO4 3398   6.482   4.583   6.861  0.2308  0.0829 -0.3178
    1DPPC   GL1 3399   6.652   4.856   6.484  0.1236  0.1549 -0.1575
    1DPPC   GL2 3400   6.758   5.130   6.550  0.1326 -0.0146  0.0114
    1DPPC   C1A 3401   6.702   4.841   6.024 -0.3421  0.2121  0.1892
    1DPPC   C2A 3402   7.093   4.725   5.792 -0.1138 -0.1449 -0.2262
    1DPPC   C3A 3403   7.361   4.800   5.544  0.4854  0.0322  0.1938
    1DPPC   C4A 3404   7.450   4.654   5.210  0.0370 -0.1475  0.0242
    1DPPC   C1B 3405   6.615   5.361   6.158 -0.0469  0.0848  0.0680
    1DPPC   C2B 3406   6.478   5.267   5.815  0.2451 -0.0473 -0.0059
    1DPPC   C3B 3407   6.536   5.456   5.396  0.0849 -0.0389 -0.1317
    1DPPC   C4B 3408   6.106   5.358   5.203  0.1490 -0.2622  0.3780
    1DPPC   NC3 3409  17.833  11.120   7.137  0.2454 -0.0672  0.0348
    1DPPC   PO4 3410  17.835  11.222   6.750  0.1926  0.3803 -0.0121
    1DPPC   GL1 3411  17.786  11.267   6.308  0.2956  0.1309 -0.0410
    1DPPC   GL2 3412  17.479  11.486   6.282 -0.1735 -0.2298 -0.2773
    1DPPC   C1A 3413  17.723  11.265   5.905 -0.1037  0.2033 -0.3741
    1DPPC   C2A 3414  17.889  11.314   5.502  0.1265 -0.0851 -0.3211
    1DPPC   C3A 3415  17.815  11.288   5.173  0.1218 -0.0389 -0.2055
    1DPPC   C4A 3416  17.753  11.335   4.786 -0.5414  0.1267  0.2095
    1DPPC   C1B 3417  17.235  11.631   5.922 -0.0272  0.1380  0.1451
    1DPPC   C2B 3418  17.155  11.605   5.531  0.0082  0.2681 -0.0614
    1DPPC   C3B 3419  17.220  11.387   5.154 -0.1650  0.3380 -0.2580
    1DPPC   C4B 3420  17.244  11.515   4.637 -0.0181  0.0422  0.1319
    1DPPC   NC3 3421  11.882  21.787   6.511  0.2086 -0.3732  0.1661
    1DPPC   PO4 3422  11.570  22.052   6.647  0.0752 -0.0165  0.0470
    1DPPC   GL1 3423  11.698  22.060   6.161  0.0852  0.0153  0.0915
    1DPPC   GL2 3424  11.971  21.850   6.040 -0.0480 -0.1437  0.0674
    1DPPC   C1A 3425  11.614  22.180   5.758  0.1049  0.2324 -0.1645
    1DPPC   C2A 3426  11.672  22.297   5.393  0.1129  0.0431  0.1620
    1DPPC   C3A 3427  11.638  22.621   5.285  0.0398 -0.1161 -0.1283
    1DPPC   C4A 3428  11.879  23.048   5.376  0.2844  0.3065 -0.0062
    1DPPC   C1B 3429  12.009  21.937   5.541  0.1959  0.3557  0.1621
    1DPPC   C2B 3430  12.024  22.055   5.171  0.1308  0.1987  0.1433
    1DPPC   C3B 3431  11.777  22.316   4.893 -0.1891  0.2529 -0.1577
    1DPPC   C4B 3432  11.414  22.383   4.819  0.0950  0.1312 -0.0792
    1DPPC   NC3 3433  13.975  10.273   7.834  0.2542  0.3698  0.2621
    1DPPC   PO4 3434  14.188  10.475   7.487  0.1366 -0.0888 -0.0918
    1DPPC   GL1 3435  14.141  10.455   7.043 -0.0484 -0.2151  0.0255
    1DPPC   GL2 3436  14.374  10.582   6.833 -0.1754  0.0308  0.1452
    1DPPC   C1A 3437  13.867  10.428   6.722 -0.0359  0.1054 -0.2416
    1DPPC   C2A 3438  13.782  10.516   6.348  0.4569 -0.2358  0.0150
    1DPPC   C3A 3439  13.635  10.575   5.978  0.0106 -0.0957  0.3621
    1DPPC   C4A 3440  13.654  10.522   5.490 -0.1933 -0.0662 -0.4410
    1DPPC   C1B 3441  14.325  10.639   6.457  0.1869  0.0449  0.2246
    1DPPC   C2B 3442  14.134  10.569   6.065  0.0416 -0.0558 -0.3763
    1DPPC   C3B 3443  14.115  10.438   5.648 -0.0178 -0.3511  0.0793
    1DPPC   C4B 3444  13.968  10.052   5.456  0.0976 -0.2896  0.0067
    1DPPC   NC3 3445  20.424  12.337   6.899 -0.2090 -0.2199  0.0160
    1DPPC   PO4 3446  20.375  12.694   6.609  0.0371  0.1825  0.1292
    1DPPC   GL1 3447  20.610  12.635   6.247 -0.0256 -0.0010  0.3165
    1DPPC   GL2 3448  20.719  12.888   6.072 -0.1184  0.1363  0.0700
    1DPPC   C1A 3449  20.421  12.586   5.730  0.0672 -0.1167 -0.2651
    1DPPC   C2A 3450  20.479  12.447   5.331 -0.1301 -0.0485  0.1722
    1DPPC   C3A 3451  20.516  12.256   4.873 -0.1794 -0.1142  0.0206
    1DPPC   C4A 3452  20.752  12.369   4.528  0.1343  0.2239  0.1694
    1DPPC   C1B 3453  20.776  13.021   5.654  0.1086 -0.0921  0.1174
    1DPPC   C2B 3454  20.797  12.946   5.214  0.3779  0.2385 -0.1804
    1DPPC   C3B 3455  20.954  12.504   5.046 -0.0835  0.5779  0.2887
    1DPPC   C4B 3456  21.177  12.227   4.750 -0.0964  0.1859  0.1075
    1DPPC   NC3 3457  18.005  15.429   6.513  0.1582 -0.1595 -0.0249
    1DPPC   PO4 3458  18.013  15.123   6.766  0.0852  0.0635 -0.0517
    1DPPC   GL1 3459  17.894  14.929   6.376  0.0713 -0.4061 -0.2114
    1DPPC   GL2 3460  17.604  14.894   6.338  0.0733  0.1406  0.1564
    1DPPC   C1A 3461  18.188  14.815   6.009 -0.0348  0.0081  0.2817
    1DPPC   C2A 3462  18.201  14.837   5.544  0.4590  0.1924  0.0888
    1DPPC   C3A 3463  18.279  14.766   5.006  0.3908 -0.1905  0.2994
    1DPPC   C4A 3464  18.463  14.755   4.604  0.0465 -0.0878  0.1402
    1DPPC   C1B 3465  17.718  15.188   5.958  0.2566  0.0926  0.0458
    1DPPC   C2B 3466  17.697  15.039   5.588  0.0941 -0.0156  0.1597
    1DPPC   C3B 3467  17.771  14.876   5.164  0.2156 -0.4291 -0.1314
    1DPPC   C4B 3468  17.879  14.915   4.727  0.3046  0.1213 -0.0960
    1DPPC   NC3 3469  18.135   9.666   7.028  0.0647 -0.3174  0.1810
    1DPPC   PO4 3470  17.958   9.327   6.835  0.0600 -0.0148 -0.0265
    1DPPC   GL1 3471  18.047   9.455   6.464 -0.2515  0.2002 -0.0667
    1DPPC   GL2 3472  18.243   9.576   6.440 -0.0428 -0.1213 -0.2180
    1DPPC   C1A 3473  18.086   9.300   6.085  0.1087 -0.1572  0.0473
    1DPPC   C2A 3474  18.179   9.289   5.638 -0.1432 -0.1203 -0.0632
    1DPPC   C3A 3475  18.158   9.294   5.191  0.1423 -0.2429 -0.1742
    1DPPC   C4A 3476  17.890   9.315   4.810  0.3782  0.3557  0.1356
    1DPPC   C1B 3477  18.546   9.328   6.232  0.0556  0.2579  0.1316
    1DPPC   C2B 3478  18.761   9.164   5.792 -0.1034 -0.1053  0.2290
    1DPPC   C3B 3479  18.829   8.994   5.392 -0.4018 -0.0305 -0.1595
    1DPPC   C4B 3480  18.994   8.793   4.998  0.1612 -0.1228 -0.2292
    1DPPC   NC3 3481  19.170  16.436   6.385 -0.1182  0.1855 -0.0605
    1DPPC   PO4 3482  19.197  16.019   6.612 -0.2386  0.3160  0.1088
    1DPPC   GL1 3483  19.146  15.826   6.185  0.1719 -0.3870 -0.0503
    1DPPC   GL2 3484  18.781  15.557   6.045 -0.0859 -0.0730  0.1789
    1DPPC   C1A 3485  19.159  15.791   5.765 -0.0356 -0.0225  0.3086
    1DPPC   C2A 3486  19.100  15.811   5.314  0.0566 -0.2040 -0.1294
    1DPPC   C3A 3487  19.077  15.940   4.961  0.2374  0.0664 -0.0915
    1DPPC   C4A 3488  18.963  16.112   4.589  0.2789  0.0291  0.1781
    1DPPC   C1B 3489  18.708  15.606   5.599 -0.2793 -0.2317  0.0470
    1DPPC   C2B 3490  18.635  15.630   5.196 -0.1560 -0.0940  0.0784
    1DPPC   C3B 3491  18.598  15.813   4.845 -0.0815 -0.0006 -0.1787
    1DPPC   C4B 3492  18.373  16.161   4.669 -0.0263  0.1732 -0.1775
    1DPPC   NC3 3493  19.365  18.616   6.527 -0.2354 -0.1016  0.0975
    1DPPC   PO4 3494  19.171  18.315   6.719 -0.1186  0.1728  0.0166
    1DPPC   GL1 3495  19.220  18.120   6.340  0.0899 -0.0181  0.1519
    1DPPC   GL2 3496  19.591  18.130   6.176  0.2033  0.2506  0.0004
    1DPPC   C1A 3497  19.135  18.047   5.974  0.2730 -0.0686 -0.0100
    1DPPC   C2A 3498  19.073  18.233   5.566  0.0964  0.1552 -0.2802
    1DPPC   C3A 3499  19.095  18.171   5.063  0.1546 -0.1348 -0.0481
    1DPPC   C4A 3500  19.115  18.364   4.630  0.1200 -0.0635 -0.1921
    1DPPC   C1B 3501  19.523  18.260   5.728 -0.0466 -0.1523 -0.0214
    1DPPC   C2B 3502  19.608  18.314   5.382 -0.0364 -0.1767  0.0885
    1DPPC   C3B 3503  19.555  18.371   5.003 -0.0461 -0.0177  0.0721
    1DPPC   C4B 3504  19.517  18.089   4.665  0.0911 -0.0780 -0.4292
    1DPPC   NC3 3505  17.444  16.034   7.015 -0.3677  0.0092  0.1703
    1DPPC   PO4 3506  17.744  15.918   6.642 -0.0007  0.1875  0.1880
    1DPPC   GL1 3507  17.479  16.106   6.345 -0.1311 -0.1423  0.0119
    1DPPC   GL2 3508  17.402  16.461   6.436 -0.1083 -0.0203  0.0376
    1DPPC   C1A 3509  17.386  16.065   5.918 -0.0696 -0.0844  0.1780
    1DPPC   C2A 3510  17.305  16.158   5.469  0.2123 -0.3250  0.3750
    1DPPC   C3A 3511  17.343  16.213   5.026  0.2180 -0.2814 -0.1236
    1DPPC   C4A 3512  17.392  16.364   4.533 -0.0460  0.1622 -0.2662
    1DPPC   C1B 3513  17.514  16.521   6.003  0.1237  0.0567 -0.1880
    1DPPC   C2B 3514  17.497  16.619   5.577 -0.0096 -0.0898  0.2403
    1DPPC   C3B 3515  17.509  16.653   5.169 -0.2903  0.1172  0.3697
    1DPPC   C4B 3516  17.688  16.758   4.796  0.0037 -0.0708  0.1332
    1DPPC   NC3 3517  14.320  10.952   7.300  0.1959  0.0081 -0.0828
    1DPPC   PO4 3518  14.049  11.268   7.495  0.1578 -0.1929 -0.1662
    1DPPC   GL1 3519  14.205  11.395   7.065 -0.3490  0.0859 -0.1150
    1DPPC   GL2 3520  14.526  11.344   6.919 -0.0900 -0.1699 -0.1267
    1DPPC   C1A 3521  13.981  11.544   6.753 -0.0698 -0.1984 -0.0010
    1DPPC   C2A 3522  13.987  11.579   6.406  0.2966 -0.0143  0.1181
    1DPPC   C3A 3523  13.881  11.599   6.009  0.2093 -0.0860  0.1417
    1DPPC   C4A 3524  13.828  11.476   5.540 -0.0469 -0.2628 -0.0620
    1DPPC   C1B 3525  14.459  11.478   6.512 -0.1678 -0.1754 -0.1048
    1DPPC   C2B 3526  14.343  11.427   6.047 -0.1420 -0.2460  0.0238
    1DPPC   C3B 3527  14.333  11.322   5.676  0.1305 -0.1969 -0.0379
    1DPPC   C4B 3528  14.374  11.093   5.245 -0.2871 -0.0742 -0.1678
    1DPPC   NC3 3529  17.002  20.567   7.277 -0.0545  0.2653  0.0952
    1DPPC   PO4 3530  16.983  20.982   7.099  0.1160  0.0134  0.2401
    1DPPC   GL1 3531  16.827  20.883   6.634 -0.4298  0.1200 -0.0356
    1DPPC   GL2 3532  16.740  21.216   6.628  0.0170 -0.1546  0.0019
    1DPPC   C1A 3533  16.553  20.863   6.252  0.4123 -0.1280 -0.0055
    1DPPC   C2A 3534  16.478  20.860   5.880  0.0875 -0.0710  0.3111
    1DPPC   C3A 3535  16.531  20.958   5.393  0.3043  0.3373 -0.4551
    1DPPC   C4A 3536  16.684  20.866   4.993  0.0052  0.0243 -0.0001
    1DPPC   C1B 3537  16.828  21.295   6.230 -0.1970 -0.0522  0.2522
    1DPPC   C2B 3538  16.916  21.207   5.704  0.1609 -0.1921 -0.1189
    1DPPC   C3B 3539  17.037  21.165   5.290  0.0446 -0.1976  0.1535
    1DPPC   C4B 3540  17.212  21.031   4.936 -0.1642 -0.3783  0.0799
    1DPPC   NC3 3541  13.993  11.730   7.375 -0.2795  0.3499  0.2116
    1DPPC   PO4 3542  13.587  11.841   7.446 -0.1869 -0.0268  0.0366
    1DPPC   GL1 3543  13.411  11.765   7.098 -0.4871  0.1928 -0.1145
    1DPPC   GL2 3544  13.268  12.078   6.959 -0.2473 -0.0216 -0.1594
    1DPPC   C1A 3545  13.515  11.582   6.701 -0.0766  0.1178 -0.2774
    1DPPC   C2A 3546  13.523  11.410   6.373  0.4445  0.0194 -0.0558
    1DPPC   C3A 3547  13.448  11.448   5.920 -0.0435 -0.1812 -0.1869
    1DPPC   C4A 3548  13.369  11.396   5.552 -0.1680 -0.0291  0.1747
    1DPPC   C1B 3549  13.176  11.960   6.533  0.0775  0.1639 -0.1432
    1DPPC   C2B 3550  13.112  11.796   6.054 -0.0024  0.0178 -0.3121
    1DPPC   C3B 3551  13.048  11.816   5.695  0.0644  0.0388  0.1227
    1DPPC   C4B 3552  13.020  12.047   5.333  0.3156  0.2047 -0.2623
    1DPPC   NC3 3553  16.659  11.950   7.232 -0.2554 -0.2670  0.0147
    1DPPC   PO4 3554  16.380  11.742   6.934  0.0898  0.0694  0.0871
    1DPPC   GL1 3555  16.237  11.332   6.707 -0.1724 -0.0394 -0.1750
    1DPPC   GL2 3556  16.521  11.394   6.552  0.0013  0.2108  0.1034
    1DPPC   C1A 3557  15.987  11.081   6.404 -0.0323 -0.1287  0.1806
    1DPPC   C2A 3558  15.835  11.152   5.983  0.1037  0.2085  0.1293
    1DPPC   C3A 3559  15.809  11.136   5.652 -0.3270 -0.1152 -0.3756
    1DPPC   C4A 3560  15.741  10.978   5.271  0.1274  0.3597  0.1416
    1DPPC   C1B 3561  16.249  11.471   6.250  0.1878 -0.4228  0.0601
    1DPPC   C2B 3562  16.297  11.506   5.886  0.0016  0.2490  0.2089
    1DPPC   C3B 3563  16.197  11.393   5.476 -0.0491  0.1785 -0.0659
    1DPPC   C4B 3564  16.031  11.371   5.065  0.2310  0.0204 -0.2084
    1DPPC   NC3 3565   9.654  14.953   7.444  0.1275  0.0092  0.0531
    1DPPC   PO4 3566   9.880  15.034   7.102 -0.3486  0.1755 -0.2533
    1DPPC   GL1 3567   9.931  14.987   6.741  0.0083  0.0044 -0.2143
    1DPPC   GL2 3568  10.288  14.912   6.615  0.2449  0.0149  0.1233
    1DPPC   C1A 3569   9.852  14.903   6.347 -0.1820 -0.1849  0.0881
    1DPPC   C2A 3570   9.922  14.870   5.901  0.0742 -0.0030 -0.0153
    1DPPC   C3A 3571  10.016  14.784   5.501 -0.0328  0.0962  0.0106
    1DPPC   C4A 3572   9.993  14.574   4.990 -0.0253  0.1146  0.0918
    1DPPC   C1B 3573  10.384  14.657   6.237  0.0357  0.1462 -0.1187
    1DPPC   C2B 3574  10.342  14.598   5.875 -0.0644 -0.3066 -0.0704
    1DPPC   C3B 3575  10.473  14.755   5.465 -0.1164  0.0434  0.1024
    1DPPC   C4B 3576  10.454  14.764   4.992 -0.3554 -0.0376 -0.1485
    1DPPC   NC3 3577  17.460  15.005   6.834 -0.1351  0.1075 -0.3440
    1DPPC   PO4 3578  17.513  15.345   6.570  0.0859  0.0280  0.1075
    1DPPC   GL1 3579  17.271  15.289   6.232 -0.1353  0.1312 -0.2660
    1DPPC   GL2 3580  17.295  15.531   6.027  0.2041 -0.1002 -0.0732
    1DPPC   C1A 3581  17.234  15.146   5.732  0.0761  0.1532 -0.3233
    1DPPC   C2A 3582  17.212  15.092   5.345  0.0948 -0.1666  0.1417
    1DPPC   C3A 3583  17.304  15.103   4.888  0.2626 -0.3386 -0.1084
    1DPPC   C4A 3584  17.192  15.402   4.530 -0.1983  0.1381 -0.2264
    1DPPC   C1B 3585  17.296  15.596   5.597 -0.0473  0.2718 -0.1028
    1DPPC   C2B 3586  17.248  15.572   5.216  0.1277 -0.0488 -0.1602
    1DPPC   C3B 3587  17.056  15.765   4.830  0.0599 -0.0941  0.0865
    1DPPC   C4B 3588  17.069  15.978   4.497 -0.0994  0.2546 -0.0797
    1DPPC   NC3 3589  10.478  12.520   7.413 -0.3357  0.0484 -0.1742
    1DPPC   PO4 3590  10.373  12.387   7.091  0.0314 -0.2173 -0.1316
    1DPPC   GL1 3591  10.352  12.525   6.748  0.1811  0.1250 -0.1674
    1DPPC   GL2 3592  10.704  12.496   6.724  0.0866 -0.0045  0.0487
    1DPPC   C1A 3593  10.306  12.366   6.337  0.1004  0.0938 -0.1951
    1DPPC   C2A 3594  10.580  12.352   6.034 -0.1376  0.1309  0.0027
    1DPPC   C3A 3595  10.709  12.142   5.579 -0.0317 -0.1027  0.0014
    1DPPC   C4A 3596  10.542  11.975   5.218 -0.0337 -0.0496 -0.0557
    1DPPC   C1B 3597  10.712  12.789   6.384  0.1659 -0.0193 -0.0559
    1DPPC   C2B 3598  10.641  12.888   6.050  0.2639  0.0089  0.0030
    1DPPC   C3B 3599  10.717  12.699   5.724 -0.0654 -0.1753 -0.2824
    1DPPC   C4B 3600  11.013  12.576   5.450  0.0329 -0.1900  0.2609
    1DPPC   NC3 3601  13.987  18.606   6.881 -0.0887 -0.0860 -0.3555
    1DPPC   PO4 3602  14.465  18.515   6.796 -0.4219  0.0211 -0.0102
    1DPPC   GL1 3603  14.741  18.255   6.654 -0.1411  0.1494 -0.2159
    1DPPC   GL2 3604  14.997  18.371   6.488 -0.0726  0.0167  0.0663
    1DPPC   C1A 3605  14.730  17.887   6.352  0.0070 -0.2371  0.0439
    1DPPC   C2A 3606  14.770  17.958   5.928 -0.5167 -0.0519  0.1096
    1DPPC   C3A 3607  14.813  17.993   5.511 -0.2731  0.4283 -0.1080
    1DPPC   C4A 3608  14.881  18.147   5.084 -0.0147  0.0209 -0.0188
    1DPPC   C1B 3609  14.815  18.399   6.097  0.2109  0.0440 -0.2952
    1DPPC   C2B 3610  14.859  18.429   5.647  0.2906 -0.0322  0.1354
    1DPPC   C3B 3611  14.919  18.657   5.224  0.2805 -0.1533 -0.1530
    1DPPC   C4B 3612  15.318  18.970   4.996 -0.0608 -0.0688 -0.1997
    1DPPC   NC3 3613  22.447  16.978   6.385  0.0714 -0.2207 -0.1274
    1DPPC   PO4 3614  22.413  16.573   6.125 -0.2183 -0.2679 -0.2187
    1DPPC   GL1 3615  22.606  16.799   5.818 -0.0306 -0.1197  0.1032
    1DPPC   GL2 3616  22.463  17.100   5.850  0.2008 -0.0415  0.0721
    1DPPC   C1A 3617  22.819  16.761   5.429 -0.0353  0.1295  0.2756
    1DPPC   C2A 3618  22.774  16.691   4.943 -0.0957  0.2294  0.4061
    1DPPC   C3A 3619  22.473  16.868   4.561 -0.1190 -0.1253 -0.1825
    1DPPC   C4A 3620  22.108  16.785   4.317 -0.1991  0.1052  0.1055
    1DPPC   C1B 3621  22.600  17.212   5.497 -0.1506 -0.3320  0.1063
    1DPPC   C2B 3622  22.740  17.136   5.131 -0.1632 -0.0283 -0.0962
    1DPPC   C3B 3623  22.837  17.325   4.727 -0.0693 -0.2423 -0.2066
    1DPPC   C4B 3624  22.711  17.534   4.335  0.1785  0.1097 -0.0221
    1DPPC   NC3 3625  15.087  19.586   7.115 -0.2390  0.1575  0.2482
    1DPPC   PO4 3626  14.972  19.251   6.822  0.1954 -0.0440  0.2922
    1DPPC   GL1 3627  15.045  19.463   6.470 -0.2196 -0.0868 -0.2466
    1DPPC   GL2 3628  14.826  19.307   6.326 -0.1769 -0.1694 -0.1888
    1DPPC   C1A 3629  15.242  19.454   6.063  0.0093 -0.0541 -0.0325
    1DPPC   C2A 3630  15.374  19.511   5.601 -0.0368 -0.2499 -0.2613
    1DPPC   C3A 3631  15.385  19.356   5.268 -0.2195 -0.0461 -0.2254
    1DPPC   C4A 3632  15.598  19.439   4.892  0.2933 -0.1494 -0.0606
    1DPPC   C1B 3633  14.566  19.034   6.148  0.0054  0.2284 -0.2438
    1DPPC   C2B 3634  14.438  18.686   5.918 -0.0036 -0.1959  0.1298
    1DPPC   C3B 3635  14.455  18.709   5.442  0.0449 -0.1612 -0.1087
    1DPPC   C4B 3636  14.480  18.816   5.015  0.3252  0.0061  0.1787
    1DPPC   NC3 3637  14.881   7.665   7.780 -0.3134 -0.2525 -0.0196
    1DPPC   PO4 3638  14.312   7.618   7.697 -0.0813  0.2057 -0.1382
    1DPPC   GL1 3639  14.392   7.529   7.299  0.0539  0.1106 -0.1562
    1DPPC   GL2 3640  14.680   7.379   7.184  0.1494 -0.1015 -0.2985
    1DPPC   C1A 3641  14.078   7.503   6.939 -0.3581  0.1433  0.0554
    1DPPC   C2A 3642  14.115   7.572   6.516  0.1394  0.3995  0.1271
    1DPPC   C3A 3643  14.251   7.682   6.058  0.0813  0.3862  0.0630
    1DPPC   C4A 3644  14.131   7.550   5.648 -0.1177  0.3176  0.2046
    1DPPC   C1B 3645  14.509   7.078   6.946 -0.2899 -0.0677 -0.0695
    1DPPC   C2B 3646  14.451   6.938   6.493  0.0674  0.1907 -0.1254
    1DPPC   C3B 3647  14.532   7.185   6.103  0.0250 -0.0696 -0.0949
    1DPPC   C4B 3648  14.310   7.111   5.750 -0.1290  0.3693 -0.3642
    1DIPC   NC3 3649  10.298  24.991   6.462  0.0190  0.1384 -0.0979
    1DIPC   PO4 3650  10.717  25.104   6.355  0.2614 -0.1377  0.0345
    1DIPC   GL1 3651  10.756  25.320   5.950  0.1414  0.2042  0.0315
    1DIPC   GL2 3652  10.976  25.121   5.783  0.0714  0.1037  0.1655
    1DIPC   C1A 3653  10.831  25.546   5.590  0.0568 -0.1048  0.0992
    1DIPC   D2A 3654  10.831  25.569   5.101  0.0856  0.2720 -0.1989
    1DIPC   D3A 3655  11.231  25.618   5.331  0.2145  0.2339  0.1199
    1DIPC   C4A 3656  11.353  25.348   5.627  0.4137 -0.1847 -0.0027
    1DIPC   C1B 3657  10.754  25.003   5.437  0.0673  0.1809 -0.3576
    1DIPC   D2B 3658  10.716  24.763   5.155  0.0384  0.2799 -0.0933
    1DIPC   D3B 3659  10.669  25.112   4.882  0.0431  0.2875 -0.2777
    1DIPC   C4B 3660  10.743  25.235   4.472  0.1965 -0.1601  0.0080
    1DIPC   NC3 3661  10.771   7.126   7.294  0.2445 -0.0787  0.0210
    1DIPC   PO4 3662  10.470   7.525   7.292 -0.1217  0.0654  0.3391
    1DIPC   GL1 3663  10.467   7.417   6.908 -0.6177 -0.1072 -0.1423
    1DIPC   GL2 3664  10.600   7.187   6.758  0.2712 -0.2224 -0.2625
    1DIPC   C1A 3665  10.206   7.437   6.530 -0.2652  0.0471  0.2167
    1DIPC   D2A 3666  10.120   7.704   6.115 -0.3391 -0.0171 -0.1437
    1DIPC   D3A 3667  10.286   8.002   5.956  0.0341 -0.1201 -0.0690
    1DIPC   C4A 3668  10.539   8.277   6.119 -0.2359 -0.0736 -0.0176
    1DIPC   C1B 3669  10.520   6.973   6.431  0.0903  0.0089 -0.2254
    1DIPC   D2B 3670  10.368   7.097   6.142 -0.1057  0.1461  0.4235
    1DIPC   D3B 3671  10.278   7.376   5.758 -0.1173  0.1583 -0.6309
    1DIPC   C4B 3672  10.532   7.641   5.643 -0.0821  0.0505  0.3142
    1DIPC   NC3 3673   0.969  15.339   5.462 -0.0640  0.3346 -0.1883
    1DIPC   PO4 3674   1.221  15.731   5.269  0.2124 -0.1463 -0.0383
    1DIPC   GL1 3675   1.383  15.594   4.849  0.0948 -0.3514 -0.1426
    1DIPC   GL2 3676   1.720  15.674   4.957 -0.4224  0.2340  0.3999
    1DIPC   C1A 3677   1.327  15.476   4.392  0.1591 -0.2764  0.0806
    1DIPC   D2A 3678   1.327  15.208   4.186 -0.1301  0.1500 -0.0993
    1DIPC   D3A 3679   1.090  14.817   4.270  0.3867  0.1959  0.1179
    1DIPC   C4A 3680   0.806  14.631   4.061  0.3735  0.3301 -0.0331
    1DIPC   C1B 3681   1.895  15.651   4.555 -0.1438  0.2216 -0.2251
    1DIPC   D2B 3682   2.018  15.864   4.265  0.1019  0.1832 -0.1654
    1DIPC   D3B 3683   1.754  15.513   4.110 -0.0214 -0.3736 -0.1382
    1DIPC   C4B 3684   1.731  15.433   3.713 -0.4296 -0.1355 -0.0356
    1DIPC   NC3 3685  14.776   2.372   7.484  0.2173  0.0537  0.4565
    1DIPC   PO4 3686  14.792   1.935   7.456 -0.1262 -0.0320  0.1785
    1DIPC   GL1 3687  14.882   2.154   6.988  0.1439  0.3264 -0.2543
    1DIPC   GL2 3688  15.157   2.110   6.977  0.1360  0.0284  0.1168
    1DIPC   C1A 3689  14.985   2.219   6.507 -0.3622 -0.0474  0.1063
    1DIPC   D2A 3690  14.686   2.362   6.181 -0.2557 -0.1431  0.2349
    1DIPC   D3A 3691  14.455   2.521   5.817  0.0209  0.0703 -0.1178
    1DIPC   C4A 3692  14.509   2.942   5.674  0.0941 -0.1949  0.1073
    1DIPC   C1B 3693  15.425   2.502   6.811 -0.0930 -0.0920 -0.1972
    1DIPC   D2B 3694  15.275   2.932   6.585  0.1612 -0.2888 -0.2093
    1DIPC   D3B 3695  15.450   3.147   6.244  0.0646 -0.1411  0.1580
    1DIPC   C4B 3696  15.801   3.037   5.939  0.1475  0.1340 -0.2018
    1DIPC   NC3 3697  29.365  20.848   6.235  0.0159 -0.0453 -0.2616
    1DIPC   PO4 3698  29.208  20.706   5.811  0.0256  0.2307 -0.0667
    1DIPC   GL1 3699  29.309  21.080   5.537 -0.0501  0.1544 -0.2640
    1DIPC   GL2 3700  29.308  21.344   5.735  0.0997 -0.0827 -0.0507
    1DIPC   C1A 3701  29.475  21.253   5.093  0.2355 -0.3631  0.1541
    1DIPC   D2A 3702  29.518  21.346   4.617  0.1149 -0.2803  0.1823
    1DIPC   D3A 3703  29.476  21.011   4.296  0.2276 -0.1821 -0.0720
    1DIPC   C4A 3704  29.317  20.596   4.434  0.0551  0.0991  0.2847
    1DIPC   C1B 3705  29.121  21.694   5.434 -0.0352 -0.0110  0.2016
    1DIPC   D2B 3706  28.778  21.929   5.035 -0.2233 -0.0449  0.0478
    1DIPC   D3B 3707  28.741  21.738   4.549  0.1210  0.0093 -0.0416
    1DIPC   C4B 3708  28.459  21.747   4.246  0.1232 -0.2026  0.1746
    1DIPC   NC3 3709   4.149  16.958   5.749 -0.2099 -0.0341 -0.2203
    1DIPC   PO4 3710   3.747  16.796   6.000 -0.1459 -0.4252  0.3407
    1DIPC   GL1 3711   3.732  16.444   5.657  0.3626  0.2058  0.1246
    1DIPC   GL2 3712   3.493  16.431   5.405  0.2071  0.0229  0.0785
    1DIPC   C1A 3713   3.939  16.252   5.214  0.0010  0.1074 -0.2555
    1DIPC   D2A 3714   4.088  16.563   4.944 -0.2651 -0.0883 -0.0605
    1DIPC   D3A 3715   4.221  16.194   4.656 -0.1541  0.0707  0.2870
    1DIPC   C4A 3716   4.186  15.907   4.276 -0.0855  0.1334 -0.4914
    1DIPC   C1B 3717   3.373  16.265   4.953 -0.1675 -0.0681  0.0221
    1DIPC   D2B 3718   3.641  16.037   4.779 -0.0477 -0.0439 -0.0509
    1DIPC   D3B 3719   3.779  16.143   4.430 -0.1285 -0.0639 -0.0121
    1DIPC   C4B 3720   3.651  15.699   4.246 -0.0948  0.0062  0.1261
    1DIPC   NC3 3721   0.787  22.129   6.044 -0.2141 -0.0251  0.2955
    1DIPC   PO4 3722   0.313  22.056   5.850  0.1242  0.0343 -0.3715
    1DIPC   GL1 3723   0.290  21.901   5.475 -0.0811 -0.2373  0.1200
    1DIPC   GL2 3724   0.237  22.212   5.244  0.1338  0.0652 -0.1303
    1DIPC   C1A 3725  -0.065  21.662   5.152  0.1243  0.0957  0.0652
    1DIPC   D2A 3726  -0.217  21.267   4.877 -0.0368 -0.1415  0.3298
    1DIPC   D3A 3727  -0.045  21.007   4.509  0.1143 -0.2002  0.1916
    1DIPC   C4A 3728   0.266  20.750   4.592  0.1441 -0.0196 -0.0566
    1DIPC   C1B 3729   0.280  22.194   4.791  0.2893  0.1781 -0.2668
    1DIPC   D2B 3730   0.284  21.818   4.611  0.0285 -0.0691  0.2559
    1DIPC   D3B 3731  -0.044  21.668   4.576 -0.0221 -0.1795 -0.0645
    1DIPC   C4B 3732  -0.444  21.763   4.435 -0.3213  0.0040 -0.0240
    1DIPC   NC3 3733  29.592  25.696   6.410 -0.2095 -0.2625 -0.0730
    1DIPC   PO4 3734  29.263  25.666   6.181 -0.1000  0.1234  0.0081
    1DIPC   GL1 3735  29.375  25.974   5.910 -0.5484 -0.0512  0.0680
    1DIPC   GL2 3736  29.489  26.195   6.137  0.1198 -0.2185  0.0681
    1DIPC   C1A 3737  29.386  26.174   5.453 -0.3315  0.2412 -0.0892
    1DIPC   D2A 3738  29.078  26.425   5.301  0.0862  0.1366  0.0406
    1DIPC   D3A 3739  29.206  26.260   4.905 -0.1587  0.2516  0.0814
    1DIPC   C4A 3740  29.370  26.538   4.658 -0.1824  0.0172  0.1190
    1DIPC   C1B 3741  29.416  26.588   5.820 -0.0341  0.1033 -0.0421
    1DIPC   D2B 3742  29.336  26.843   5.464  0.2904 -0.4094  0.0260
    1DIPC   D3B 3743  29.556  26.676   5.132  0.3453 -0.1064  0.1221
    1DIPC   C4B 3744  29.983  26.590   4.843  0.0220 -0.0413  0.2075
    1DIPC   NC3 3745  29.561   4.726   6.691  0.2584 -0.1481  0.1460
    1DIPC   PO4 3746  29.856   4.745   6.347 -0.1945 -0.0804 -0.1860
    1DIPC   GL1 3747  29.806   4.672   5.950 -0.1704 -0.1820 -0.0195
    1DIPC   GL2 3748  29.641   4.441   5.830 -0.0217 -0.3221 -0.1043
    1DIPC   C1A 3749  30.102   4.552   5.629  0.0182 -0.2665 -0.0367
    1DIPC   D2A 3750  30.293   4.848   5.296  0.0048 -0.1067  0.2119
    1DIPC   D3A 3751  30.537   4.694   4.972  0.1025  0.2144  0.0784
    1DIPC   C4A 3752  30.726   4.285   4.966 -0.0605 -0.0212  0.0283
    1DIPC   C1B 3753  29.715   4.384   5.426 -0.0337  0.1230  0.2607
    1DIPC   D2B 3754  29.858   4.689   5.188  0.0511 -0.1353  0.0577
    1DIPC   D3B 3755  29.984   4.686   4.847 -0.1005 -0.1330  0.1272
    1DIPC   C4B 3756  30.118   5.049   4.620  0.1351 -0.0638  0.0705
    1DIPC   NC3 3757  21.234   9.282   7.327 -0.3944 -0.0677  0.1383
    1DIPC   PO4 3758  21.139   9.270   6.954 -0.0221 -0.1537 -0.3065
    1DIPC   GL1 3759  21.268   8.948   6.550  0.1990 -0.0606  0.1575
    1DIPC   GL2 3760  21.333   8.702   6.583 -0.0037  0.6063 -0.0807
    1DIPC   C1A 3761  21.531   8.894   6.130  0.1879 -0.0034 -0.0359
    1DIPC   D2A 3762  21.515   8.558   5.869 -0.0804  0.2696 -0.1234
    1DIPC   D3A 3763  21.286   8.735   5.569  0.0610  0.0805  0.3476
    1DIPC   C4A 3764  21.425   8.897   5.061  0.5028  0.0724 -0.1584
    1DIPC   C1B 3765  21.140   8.406   6.310  0.1629  0.0165  0.0839
    1DIPC   D2B 3766  21.301   7.986   6.094  0.1780 -0.1055  0.0800
    1DIPC   D3B 3767  21.354   8.047   5.694 -0.0201  0.0533 -0.0230
    1DIPC   C4B 3768  21.576   8.046   5.357 -0.0203 -0.1839 -0.0185
    1DIPC   NC3 3769  12.937  26.906   6.961  0.0024  0.1707  0.4089
    1DIPC   PO4 3770  12.946  27.317   6.886 -0.0665 -0.2221 -0.0788
    1DIPC   GL1 3771  12.920  27.418   6.505  0.4501  0.2890  0.2162
    1DIPC   GL2 3772  13.189  27.672   6.469  0.1697 -0.3594  0.0071
    1DIPC   C1A 3773  12.588  27.566   6.148 -0.0226  0.1573 -0.0811
    1DIPC   D2A 3774  12.709  27.638   5.766 -0.0107 -0.0244 -0.1084
    1DIPC   D3A 3775  12.532  27.447   5.453 -0.0731  0.0143 -0.0692
    1DIPC   C4A 3776  12.138  27.302   5.379  0.1964  0.1577 -0.1845
    1DIPC   C1B 3777  13.104  27.766   6.005  0.0621 -0.1967 -0.1456
    1DIPC   D2B 3778  13.150  27.865   5.567 -0.0074 -0.0390 -0.0917
    1DIPC   D3B 3779  12.908  28.158   5.682  0.0363 -0.3402 -0.3565
    1DIPC   C4B 3780  13.018  28.500   5.910 -0.0777 -0.0927  0.2968
    1DIPC   NC3 3781   9.534  29.879   7.418 -0.4895 -0.1331  0.1481
    1DIPC   PO4 3782   9.875  30.233   7.208 -0.3283  0.1837  0.3650
    1DIPC   GL1 3783  10.125  30.287   6.804  0.0386  0.1353  0.1641
    1DIPC   GL2 3784  10.026  30.090   6.555  0.0049  0.1216  0.1661
    1DIPC   C1A 3785  10.337  30.433   6.381  0.1649  0.2373 -0.0148
    1DIPC   D2A 3786  10.272  30.603   5.992  0.4192 -0.0409 -0.1232
    1DIPC   D3A 3787   9.988  30.212   5.998 -0.1614 -0.0473  0.1689
    1DIPC   C4A 3788   9.989  29.956   5.605  0.2211 -0.1563  0.0088
    1DIPC   C1B 3789  10.377  29.933   6.318 -0.2728 -0.2156  0.2041
    1DIPC   D2B 3790  10.511  30.057   5.956 -0.0044 -0.1123  0.0434
    1DIPC   D3B 3791  10.680  29.691   5.986  0.3021 -0.0763 -0.1728
    1DIPC   C4B 3792  10.891  29.611   6.304 -0.2353  0.1532 -0.2960
    1DIPC   NC3 3793  28.173  29.486   6.501 -0.0577  0.0595  0.0984
    1DIPC   PO4 3794  28.518  29.773   6.443 -0.0057 -0.0740 -0.1675
    1DIPC   GL1 3795  28.466  29.575   6.015  0.0817 -0.0726  0.1238
    1DIPC   GL2 3796  28.086  29.488   5.998  0.1660 -0.3601 -0.0902
    1DIPC   C1A 3797  28.291  29.518   5.563 -0.2591 -0.0858 -0.1368
    1DIPC   D2A 3798  28.050  29.467   5.232  0.1340 -0.0536  0.1367
    1DIPC   D3A 3799  28.301  29.406   4.806  0.1135  0.1287 -0.2470
    1DIPC   C4A 3800  28.104  29.181   4.403 -0.3388 -0.0071 -0.0018
    1DIPC   C1B 3801  27.859  29.224   5.637 -0.2203 -0.0751 -0.1505
    1DIPC   D2B 3802  27.617  29.153   5.286 -0.3691 -0.0760 -0.2409
    1DIPC   D3B 3803  27.944  28.813   5.122 -0.0575  0.0575  0.4795
    1DIPC   C4B 3804  27.940  28.858   4.720 -0.0175 -0.2062 -0.0993
    1DIPC   NC3 3805  23.767   0.031   6.837  0.1662  0.2380  0.0907
    1DIPC   PO4 3806  23.361   0.060   6.655 -0.3065  0.2368  0.1709
    1DIPC   GL1 3807  23.723  -0.240   6.394  0.0671  0.1616  0.1009
    1DIPC   GL2 3808  23.670  -0.306   6.135  0.2701  0.3555  0.0287
    1DIPC   C1A 3809  24.110  -0.188   6.316  0.3250  0.1985 -0.0162
    1DIPC   D2A 3810  24.501  -0.011   6.214  0.0551 -0.0170  0.1052
    1DIPC   D3A 3811  24.636  -0.442   6.200 -0.0314  0.1498  0.0227
    1DIPC   C4A 3812  24.290  -0.720   6.117  0.0972  0.2321 -0.2363
    1DIPC   C1B 3813  23.581  -0.456   5.768  0.0150  0.1466 -0.0727
    1DIPC   D2B 3814  23.627  -0.852   5.424 -0.1913  0.1555 -0.1879
    1DIPC   D3B 3815  23.572  -0.591   5.089  0.0230 -0.2722  0.2060
    1DIPC   C4B 3816  23.726  -0.295   4.832 -0.0438  0.3415  0.0554
    1DIPC   NC3 3817  22.186  10.463   6.355 -0.0187  0.3245 -0.0852
    1DIPC   PO4 3818  22.614  10.260   6.291  0.2975 -0.1561  0.1605
    1DIPC   GL1 3819  22.571  10.242   5.841  0.0689  0.0929  0.1879
    1DIPC   GL2 3820  22.264  10.324   5.879 -0.0405  0.2867 -0.0644
    1DIPC   C1A 3821  22.682  10.412   5.341 -0.2859 -0.2943  0.0458
    1DIPC   D2A 3822  22.617  10.606   4.954  0.2658 -0.0579 -0.3535
    1DIPC   D3A 3823  23.046  10.955   5.015  0.1049  0.3512 -0.2865
    1DIPC   C4A 3824  23.490  11.022   4.984  0.0756  0.0191 -0.2558
    1DIPC   C1B 3825  22.173  10.528   5.575 -0.1118 -0.0305 -0.3536
    1DIPC   D2B 3826  21.845  10.632   5.347  0.2915 -0.2780  0.2414
    1DIPC   D3B 3827  21.750  10.472   4.924 -0.1660 -0.0746 -0.0758
    1DIPC   C4B 3828  21.774  10.095   4.831  0.0616  0.2375  0.1154
    1DIPC   NC3 3829  28.220  30.149   6.524 -0.2879  0.1610 -0.0956
    1DIPC   PO4 3830  28.238  30.500   6.207 -0.2712 -0.2251  0.0263
    1DIPC   GL1 3831  27.825  30.371   5.889  0.2626  0.1911  0.1663
    1DIPC   GL2 3832  27.495  30.247   5.949  0.0222  0.1789  0.1413
    1DIPC   C1A 3833  27.609  30.628   5.498  0.0312 -0.0710  0.2512
    1DIPC   D2A 3834  27.337  30.542   5.127  0.2816  0.0182  0.1301
    1DIPC   D3A 3835  27.340  30.965   4.809 -0.1998  0.0316 -0.0443
    1DIPC   C4A 3836  27.628  31.031   4.523 -0.2718  0.1532 -0.1343
    1DIPC   C1B 3837  27.506  30.151   5.554 -0.0580  0.1433  0.3627
    1DIPC   D2B 3838  27.768  30.225   5.244  0.2968 -0.1044 -0.2256
    1DIPC   D3B 3839  27.429  30.138   4.901  0.1819  0.2736  0.0971
    1DIPC   C4B 3840  27.402  30.122   4.499  0.0648 -0.1327 -0.1593
    1DIPC   NC3 3841  17.414  29.474   7.135 -0.1835 -0.0539  0.2147
    1DIPC   PO4 3842  17.881  29.299   6.929 -0.1393 -0.0335 -0.0293
    1DIPC   GL1 3843  17.931  29.171   6.501  0.3973  0.0061 -0.0500
    1DIPC   GL2 3844  17.888  28.837   6.272 -0.1920 -0.2065 -0.3503
    1DIPC   C1A 3845  17.941  29.441   6.181 -0.1632 -0.0574  0.1040
    1DIPC   D2A 3846  17.846  29.431   5.723  0.0603  0.1123 -0.1700
    1DIPC   D3A 3847  18.078  29.033   5.510 -0.3878 -0.3803  0.1175
    1DIPC   C4A 3848  18.257  29.013   5.102  0.2391 -0.0581 -0.0174
    1DIPC   C1B 3849  17.559  29.098   6.118  0.0762  0.0893  0.1426
    1DIPC   D2B 3850  17.191  28.999   5.867 -0.1333 -0.3436  0.3616
    1DIPC   D3B 3851  17.301  28.631   5.669  0.0285 -0.0977  0.1902
    1DIPC   C4B 3852  17.465  28.421   5.951  0.0922  0.1029  0.1845
    1DIPC   NC3 3853   8.318  22.812   5.762  0.1211 -0.1579  0.2823
    1DIPC   PO4 3854   8.755  23.085   5.757  0.0043 -0.5479 -0.0275
    1DIPC   GL1 3855   8.857  23.061   5.343 -0.1627  0.0512 -0.0670
    1DIPC   GL2 3856   9.064  22.731   5.190  0.0195 -0.1226 -0.0595
    1DIPC   C1A 3857   9.108  23.214   5.014  0.0930  0.1746  0.0625
    1DIPC   D2A 3858   9.156  23.546   4.644  0.1281 -0.0687 -0.0867
    1DIPC   D3A 3859   9.044  23.640   4.307  0.0419  0.0088  0.4185
    1DIPC   C4A 3860   8.772  23.323   4.057  0.0971 -0.0687 -0.1177
    1DIPC   C1B 3861   9.093  22.808   4.758 -0.0927 -0.1189 -0.1385
    1DIPC   D2B 3862   8.873  23.061   4.453  0.0043  0.1625 -0.0203
    1DIPC   D3B 3863   8.712  23.374   4.588  0.0489 -0.2308 -0.0029
    1DIPC   C4B 3864   8.229  23.390   4.715  0.1014 -0.0118 -0.2229
    1DIPC   NC3 3865   6.001   2.159   6.950 -0.1966  0.1537 -0.3303
    1DIPC   PO4 3866   5.572   2.056   6.866 -0.1718  0.0046  0.0023
    1DIPC   GL1 3867   5.780   2.029   6.445  0.0651  0.1069  0.0727
    1DIPC   GL2 3868   5.538   2.067   6.159  0.0155 -0.0479 -0.2116
    1DIPC   C1A 3869   6.009   2.050   6.086 -0.1061  0.1034  0.0280
    1DIPC   D2A 3870   6.197   2.245   5.787  0.0122 -0.0472 -0.0472
    1DIPC   D3A 3871   5.998   2.672   5.599 -0.1599  0.0661 -0.1049
    1DIPC   C4A 3872   5.548   2.649   5.542 -0.1554 -0.1340  0.4044
    1DIPC   C1B 3873   5.694   2.138   5.741  0.2288  0.1613 -0.0630
    1DIPC   D2B 3874   5.566   1.981   5.428  0.3013  0.0832 -0.1494
    1DIPC   D3B 3875   5.417   1.739   5.710  0.0262 -0.2059  0.2607
    1DIPC   C4B 3876   5.217   1.465   5.525  0.2270 -0.1074  0.2532
    1DIPC   NC3 3877   4.058  14.631   7.274 -0.2049  0.0754 -0.2470
    1DIPC   PO4 3878   4.442  14.465   7.073 -0.4049  0.0684  0.0623
    1DIPC   GL1 3879   4.548  14.237   6.696 -0.0212 -0.1984  0.0136
    1DIPC   GL2 3880   4.673  14.236   6.426  0.1181 -0.2903 -0.1215
    1DIPC   C1A 3881   4.209  14.132   6.437 -0.0610  0.1105 -0.1487
    1DIPC   D2A 3882   3.875  13.869   6.041 -0.0072 -0.4915 -0.0708
    1DIPC   D3A 3883   4.324  14.018   5.954 -0.0910 -0.1964 -0.1914
    1DIPC   C4A 3884   4.622  13.759   5.767  0.2645  0.3093  0.0858
    1DIPC   C1B 3885   4.475  14.481   6.035 -0.1963  0.2286  0.1431
    1DIPC   D2B 3886   4.547  14.859   5.806  0.0702  0.2972  0.0641
    1DIPC   D3B 3887   4.544  14.625   5.423 -0.3010  0.2081  0.4342
    1DIPC   C4B 3888   4.343  14.672   5.005  0.1633 -0.3601  0.0365
    1DIPC   NC3 3889   4.822   4.821   7.148 -0.1542 -0.3123 -0.2679
    1DIPC   PO4 3890   5.041   4.947   6.810  0.1068 -0.2595 -0.0913
    1DIPC   GL1 3891   5.144   5.050   6.419 -0.1813  0.0526 -0.0083
    1DIPC   GL2 3892   5.033   5.323   6.314  0.2226  0.0282  0.0023
    1DIPC   C1A 3893   5.415   5.116   6.003  0.2003 -0.3625  0.0163
    1DIPC   D2A 3894   5.556   5.483   5.733  0.3727  0.0808 -0.3234
    1DIPC   D3A 3895   5.716   5.081   5.520 -0.3562  0.0390  0.2363
    1DIPC   C4A 3896   6.039   4.905   5.347 -0.0661 -0.0625  0.1905
    1DIPC   C1B 3897   5.020   5.617   5.958 -0.0453  0.0118  0.2875
    1DIPC   D2B 3898   5.116   5.599   5.480 -0.0607 -0.2278  0.3897
    1DIPC   D3B 3899   5.433   5.405   5.248  0.1741 -0.0113 -0.4614
    1DIPC   C4B 3900   5.619   5.638   5.144  0.1087 -0.0867  0.1409
    1DIPC   NC3 3901  22.995   6.499   7.118  0.1974 -0.0135  0.0833
    1DIPC   PO4 3902  22.678   6.271   7.033 -0.1658 -0.3863 -0.0800
    1DIPC   GL1 3903  22.639   6.337   6.593 -0.1360  0.1042  0.1771
    1DIPC   GL2 3904  22.423   6.531   6.614  0.0230  0.1763 -0.2767
    1DIPC   C1A 3905  22.532   6.145   6.207 -0.0992  0.1699  0.0765
    1DIPC   D2A 3906  22.773   5.902   5.989 -0.0963 -0.2074 -0.3564
    1DIPC   D3A 3907  22.890   6.048   5.633  0.1046 -0.2555 -0.1794
    1DIPC   C4A 3908  22.833   5.704   5.347  0.1549 -0.2053 -0.1805
    1DIPC   C1B 3909  22.099   6.438   6.267  0.1442 -0.1111 -0.0595
    1DIPC   D2B 3910  21.843   6.294   5.929  0.2353 -0.1777  0.1152
    1DIPC   D3B 3911  21.517   6.620   5.883 -0.0031 -0.0268  0.0066
    1DIPC   C4B 3912  21.249   6.773   6.281 -0.2428  0.2607  0.0691
    1DIPC   NC3 3913   6.510   5.541   7.703  0.1082  0.2446 -0.0059
    1DIPC   PO4 3914   6.790   5.769   7.355 -0.2516 -0.4091  0.1936
    1DIPC   GL1 3915   6.565   5.781   6.890  0.1881  0.3911 -0.1460
    1DIPC   GL2 3916   6.278   5.589   6.769  0.1630 -0.0650 -0.0660
    1DIPC   C1A 3917   6.340   6.080   6.682  0.0093 -0.0136  0.1774
    1DIPC   D2A 3918   6.063   6.412   6.377 -0.1003  0.0797 -0.1290
    1DIPC   D3A 3919   6.281   6.523   6.029  0.0079 -0.1038 -0.0594
    1DIPC   C4A 3920   6.364   6.450   5.589 -0.0625 -0.1849 -0.4559
    1DIPC   C1B 3921   6.110   5.410   6.305 -0.2104 -0.0908  0.3402
    1DIPC   D2B 3922   5.909   5.103   5.974 -0.1176  0.0494 -0.0843
    1DIPC   D3B 3923   6.062   5.518   5.821 -0.0040  0.0520 -0.0962
    1DIPC   C4B 3924   5.902   5.767   5.491 -0.5616 -0.3068 -0.2657
    1DIPC   NC3 3925  27.883   5.187   6.461  0.2351  0.0545  0.0345
    1DIPC   PO4 3926  27.428   5.220   6.448  0.3834 -0.0288  0.2150
    1DIPC   GL1 3927  27.562   5.157   6.031 -0.1175  0.0859  0.0417
    1DIPC   GL2 3928  27.298   5.256   5.926  0.2047  0.0745 -0.3202
    1DIPC   C1A 3929  27.702   5.437   5.707 -0.1059 -0.2219 -0.1764
    1DIPC   D2A 3930  27.945   5.505   5.345  0.1321  0.1125  0.0109
    1DIPC   D3A 3931  27.994   5.317   4.975  0.2849  0.1035 -0.2138
    1DIPC   C4A 3932  28.276   5.037   4.618 -0.0489  0.2131  0.0911
    1DIPC   C1B 3933  26.976   5.479   5.818 -0.1187 -0.2186  0.0553
    1DIPC   D2B 3934  26.696   5.790   5.625 -0.0851  0.1369  0.2698
    1DIPC   D3B 3935  26.305   5.849   5.782 -0.0846  0.3795 -0.0009
    1DIPC   C4B 3936  25.909   5.843   5.600  0.3454  0.2243  0.2116
    1DIPC   NC3 3937   1.064  22.550   5.868 -0.2552 -0.1880 -0.1282
    1DIPC   PO4 3938   1.199  22.465   5.406  0.2302 -0.2906  0.0233
    1DIPC   GL1 3939   1.079  22.592   4.983  0.0263  0.1744 -0.0183
    1DIPC   GL2 3940   1.331  22.599   4.868  0.1108 -0.1467 -0.3173
    1DIPC   C1A 3941   0.803  22.448   4.738  0.1494  0.2372  0.1372
    1DIPC   D2A 3942   0.510  22.314   4.349  0.0610  0.0074 -0.0165
    1DIPC   D3A 3943   0.379  21.936   4.147  0.0294 -0.3381  0.1653
    1DIPC   C4A 3944  -0.053  21.808   4.128 -0.1974  0.0574 -0.0351
    1DIPC   C1B 3945   1.288  22.670   4.402  0.1373  0.1646 -0.0479
    1DIPC   D2B 3946   1.330  22.892   3.968  0.4951 -0.0871  0.2192
    1DIPC   D3B 3947   1.202  23.300   4.272 -0.1181  0.1930  0.0708
    1DIPC   C4B 3948   0.818  23.485   4.459 -0.2092 -0.3229 -0.3830
    1DIPC   NC3 3949   7.820   1.258   7.816 -0.1118  0.0222  0.0669
    1DIPC   PO4 3950   7.898   1.095   7.334  0.0035  0.0952 -0.1900
    1DIPC   GL1 3951   7.841   0.948   6.894 -0.0355  0.1634 -0.4187
    1DIPC   GL2 3952   7.463   0.944   6.642 -0.0593 -0.3179  0.3130
    1DIPC   C1A 3953   8.059   0.764   6.546 -0.1864 -0.1307 -0.0352
    1DIPC   D2A 3954   8.088   0.389   6.233  0.0088 -0.2177  0.1310
    1DIPC   D3A 3955   8.277   0.486   5.796 -0.0944  0.0451 -0.2250
    1DIPC   C4A 3956   8.102   0.713   5.473 -0.1958  0.1530  0.3117
    1DIPC   C1B 3957   7.425   0.864   6.298  0.0448 -0.2440 -0.2336
    1DIPC   D2B 3958   7.278   0.642   5.964 -0.0612 -0.0820  0.0087
    1DIPC   D3B 3959   7.027   0.268   6.075 -0.2695  0.0382 -0.1406
    1DIPC   C4B 3960   6.975   0.033   5.710  0.3793  0.2622  0.1838
    1DIPC   NC3 3961  12.267  29.882   7.628 -0.1039 -0.4126 -0.0852
    1DIPC   PO4 3962  12.039  30.134   7.322 -0.1646  0.0406  0.0338
    1DIPC   GL1 3963  12.289  30.267   6.888 -0.1604 -0.2870 -0.0869
    1DIPC   GL2 3964  12.313  30.625   6.728  0.1232 -0.2709 -0.0914
    1DIPC   C1A 3965  12.506  30.209   6.501  0.0642 -0.0415  0.0156
    1DIPC   D2A 3966  12.369  30.061   6.084 -0.0256  0.2187  0.3509
    1DIPC   D3A 3967  12.375  29.639   5.973 -0.2255 -0.2523 -0.3876
    1DIPC   C4A 3968  11.967  29.406   5.856  0.0456 -0.2212  0.0591
    1DIPC   C1B 3969  12.131  30.455   6.415  0.2745  0.1561 -0.0720
    1DIPC   D2B 3970  12.034  30.560   5.951  0.1611 -0.1738 -0.1123
    1DIPC   D3B 3971  12.095  30.527   5.545  0.0624 -0.0377 -0.2004
    1DIPC   C4B 3972  12.175  30.867   5.314  0.2071 -0.0336  0.0345
    1DIPC   NC3 3973   9.630   6.173   7.262  0.2193  0.1611 -0.2776
    1DIPC   PO4 3974   9.758   6.424   6.955  0.1395 -0.0246  0.2759
    1DIPC   GL1 3975   9.828   6.792   6.652 -0.1608  0.2251  0.1470
    1DIPC   GL2 3976  10.125   6.814   6.631  0.3754 -0.1251 -0.0461
    1DIPC   C1A 3977   9.750   7.066   6.403 -0.1422 -0.0376 -0.1447
    1DIPC   D2A 3978   9.873   7.234   6.013 -0.1391  0.3307  0.0478
    1DIPC   D3A 3979   9.841   7.257   5.501 -0.0628  0.0630 -0.2336
    1DIPC   C4A 3980   9.812   6.955   5.058  0.1289  0.1325 -0.1288
    1DIPC   C1B 3981  10.093   6.662   6.196  0.2187 -0.2247 -0.0104
    1DIPC   D2B 3982  10.494   6.574   6.083 -0.3458  0.1045 -0.0369
    1DIPC   D3B 3983  10.548   6.488   5.698 -0.1455  0.1606  0.0292
    1DIPC   C4B 3984  10.767   6.572   5.273 -0.1655 -0.4212  0.1849
    1DIPC   NC3 3985  28.029   2.084   6.251  0.0559 -0.1931  0.0142
    1DIPC   PO4 3986  27.691   1.790   6.448 -0.0519 -0.1331 -0.4877
    1DIPC   GL1 3987  27.626   1.691   6.033  0.2227 -0.2714 -0.4123
    1DIPC   GL2 3988  27.687   1.878   5.795  0.1351 -0.0620  0.0458
    1DIPC   C1A 3989  28.034   1.470   5.721 -0.1075 -0.2543  0.3551
    1DIPC   D2A 3990  28.230   1.383   5.355 -0.1945 -0.0734 -0.1856
    1DIPC   D3A 3991  28.043   1.258   5.004 -0.0343  0.1428 -0.0715
    1DIPC   C4A 3992  28.200   1.014   4.709  0.2039 -0.0801 -0.1027
    1DIPC   C1B 3993  28.033   1.925   5.483 -0.3744 -0.0848  0.0972
    1DIPC   D2B 3994  28.189   1.779   5.032  0.2836  0.2291  0.1131
    1DIPC   D3B 3995  28.096   2.252   4.975 -0.2977 -0.0642  0.2918
    1DIPC   C4B 3996  28.192   2.484   5.180 -0.1227 -0.0383 -0.2124
    1DIPC   NC3 3997  19.555  23.605   6.767  0.1647 -0.2715 -0.1400
    1DIPC   PO4 3998  19.196  23.178   6.704 -0.0837  0.0289  0.2039
    1DIPC   GL1 3999  19.231  23.529   6.420 -0.2511 -0.0840  0.0440
    1DIPC   GL2 4000  18.986  23.517   6.323 -0.1323  0.1229  0.0979
    1DIPC   C1A 4001  19.386  23.726   6.050 -0.1139  0.4679 -0.0803
    1DIPC   D2A 4002  19.624  24.086   6.049  0.3907 -0.0618 -0.3609
    1DIPC   D3A 4003  19.823  24.457   6.283 -0.3087  0.4064  0.0681
    1DIPC   C4A 4004  19.970  24.648   5.918  0.2191  0.1165  0.0339
    1DIPC   C1B 4005  19.139  23.229   5.954  0.0019 -0.0275 -0.2587
    1DIPC   D2B 4006  19.167  23.450   5.570  0.0386 -0.2293 -0.0481
    1DIPC   D3B 4007  19.592  23.307   5.650  0.0145 -0.1225  0.1801
    1DIPC   C4B 4008  19.611  23.176   6.068 -0.4157 -0.2226 -0.0515
    1DIPC   NC3 4009   2.538  17.081   5.209 -0.1914  0.0695 -0.0215
    1DIPC   PO4 4010   2.654  17.597   5.330 -0.0772  0.2836  0.2735
    1DIPC   GL1 4011   2.832  17.786   4.927  0.0664  0.3263 -0.2968
    1DIPC   GL2 4012   3.009  18.064   4.929  0.0336  0.1007  0.2284
    1DIPC   C1A 4013   2.928  18.051   4.435  0.2097  0.0935 -0.0818
    1DIPC   D2A 4014   3.156  17.862   4.125  0.1553 -0.1461 -0.2224
    1DIPC   D3A 4015   3.066  17.919   3.690 -0.1453 -0.0473  0.1100
    1DIPC   C4A 4016   2.745  17.805   3.387  0.2078 -0.0207 -0.1864
    1DIPC   C1B 4017   3.387  18.034   4.574  0.1307 -0.1670 -0.1779
    1DIPC   D2B 4018   3.566  18.247   4.269  0.2158 -0.0289 -0.0785
    1DIPC   D3B 4019   3.763  17.887   4.052  0.0665 -0.2090  0.1786
    1DIPC   C4B 4020   3.573  17.641   3.755 -0.0946 -0.1527  0.1191
    1DIPC   NC3 4021   7.353  19.960   6.268  0.3216  0.0834 -0.1298
    1DIPC   PO4 4022   7.607  19.571   6.110 -0.0363 -0.1544  0.0446
    1DIPC   GL1 4023   7.611  19.691   5.757 -0.1749  0.0124  0.0244
    1DIPC   GL2 4024   7.382  19.643   5.536  0.0654 -0.3439  0.0522
    1DIPC   C1A 4025   7.757  19.552   5.267 -0.1752 -0.1262  0.2103
    1DIPC   D2A 4026   7.628  19.343   4.845 -0.0666  0.0641 -0.0234
    1DIPC   D3A 4027   7.541  18.968   4.953  0.1349 -0.0269 -0.1447
    1DIPC   C4A 4028   7.359  18.561   4.785  0.0607 -0.2465  0.0015
    1DIPC   C1B 4029   7.425  19.227   5.335  0.1397 -0.1480  0.2013
    1DIPC   D2B 4030   7.639  18.736   5.400  0.3096 -0.0069 -0.1588
    1DIPC   D3B 4031   7.763  18.514   5.024  0.2685  0.0634 -0.1024
    1DIPC   C4B 4032   8.023  18.796   4.780 -0.1780  0.1338 -0.3461
    1DIPC   NC3 4033  16.549   4.330   7.970  0.2683  0.0676 -0.0957
    1DIPC   PO4 4034  16.773   4.113   7.579 -0.0631  0.1457 -0.0029
    1DIPC   GL1 4035  16.709   4.050   7.126  0.1113 -0.0759 -0.0357
    1DIPC   GL2 4036  16.977   4.028   6.974 -0.5087 -0.1842 -0.1791
    1DIPC   C1A 4037  16.528   4.108   6.746 -0.2122 -0.1473  0.0027
    1DIPC   D2A 4038  16.408   4.435   6.418  0.2071 -0.0396 -0.1233
    1DIPC   D3A 4039  16.538   4.303   6.118 -0.1336  0.1086  0.0612
    1DIPC   C4A 4040  16.965   4.506   6.095  0.1654 -0.0767 -0.1437
    1DIPC   C1B 4041  16.827   3.726   6.717  0.0492 -0.0017 -0.1085
    1DIPC   D2B 4042  16.567   3.739   6.382 -0.4018  0.2891  0.0407
    1DIPC   D3B 4043  16.862   3.493   6.167 -0.0399 -0.1406 -0.0313
    1DIPC   C4B 4044  16.713   3.037   6.100 -0.0543 -0.0422 -0.1991
    1DIPC   NC3 4045  25.133   7.339   6.550  0.0696  0.0141 -0.0396
    1DIPC   PO4 4046  25.496   7.448   6.453 -0.2444  0.0673 -0.0323
    1DIPC   GL1 4047  25.296   7.238   6.064  0.0509  0.3281  0.1535
    1DIPC   GL2 4048  24.919   7.304   5.985  0.0208  0.1362 -0.1239
    1DIPC   C1A 4049  25.418   7.244   5.618  0.2376 -0.1872  0.0123
    1DIPC   D2A 4050  25.502   6.915   5.271  0.0640 -0.1613 -0.1895
    1DIPC   D3A 4051  25.465   7.090   4.927  0.2228 -0.0054 -0.0090
    1DIPC   C4A 4052  25.124   7.269   4.840 -0.2278 -0.1257 -0.0946
    1DIPC   C1B 4053  24.537   7.129   5.864  0.0464 -0.1308 -0.0414
    1DIPC   D2B 4054  24.321   6.880   5.597 -0.0854  0.1342 -0.2208
    1DIPC   D3B 4055  24.126   6.479   5.577 -0.0470 -0.1440  0.0820
    1DIPC   C4B 4056  24.214   6.170   5.923  0.4953 -0.1431 -0.1797
    1DIPC   NC3 4057  29.391  18.471   5.453  0.1580  0.0482  0.1446
    1DIPC   PO4 4058  28.943  18.182   5.615 -0.1689  0.1105 -0.0418
    1DIPC   GL1 4059  29.037  18.193   5.141 -0.2042 -0.0720  0.5537
    1DIPC   GL2 4060  29.010  18.492   5.028 -0.1029 -0.1752 -0.1154
    1DIPC   C1A 4061  29.248  18.135   4.809 -0.0668 -0.1584  0.0049
    1DIPC   D2A 4062  29.226  18.266   4.377 -0.3423 -0.0976 -0.2270
    1DIPC   D3A 4063  29.070  17.867   4.278 -0.1942 -0.2414 -0.0482
    1DIPC   C4A 4064  29.198  17.498   4.387  0.3439  0.1151  0.0010
    1DIPC   C1B 4065  28.713  18.316   4.733 -0.0155  0.2149  0.1126
    1DIPC   D2B 4066  28.684  18.212   4.344  0.1902  0.1875 -0.1895
    1DIPC   D3B 4067  28.574  18.568   4.310  0.1211 -0.0470  0.1560
    1DIPC   C4B 4068  28.682  18.611   3.951  0.1409 -0.0366  0.0617
    1DIPC   NC3 4069   2.583   8.027   6.746 -0.1815  0.1644  0.0473
    1DIPC   PO4 4070   2.343   8.172   6.475  0.1747 -0.0550  0.0878
    1DIPC   GL1 4071   2.645   8.089   6.219  0.1786  0.0979 -0.2713
    1DIPC   GL2 4072   2.846   8.205   6.147  0.1769  0.2447  0.0548
    1DIPC   C1A 4073   2.780   7.702   6.069 -0.0680  0.0155 -0.2704
    1DIPC   D2A 4074   2.838   7.564   5.724 -0.1455  0.1520  0.1293
    1DIPC   D3A 4075   2.391   7.509   5.662 -0.2423 -0.0633 -0.0437
    1DIPC   C4A 4076   2.273   7.614   5.297  0.1632  0.0216 -0.0824
    1DIPC   C1B 4077   2.855   8.052   5.688  0.0746 -0.0373 -0.0899
    1DIPC   D2B 4078   2.618   7.925   5.411  0.1584  0.0159 -0.0554
    1DIPC   D3B 4079   2.707   7.947   4.975 -0.3219 -0.0324 -0.1628
    1DIPC   C4B 4080   2.459   7.792   4.707  0.1939  0.1917  0.1558
    1DIPC   NC3 4081  17.223  25.576   6.663 -0.1591  0.0966 -0.1619
    1DIPC   PO4 4082  16.962  25.392   6.465  0.1657  0.0410 -0.0821
    1DIPC   GL1 4083  16.881  25.311   6.059  0.2576  0.0371 -0.1370
    1DIPC   GL2 4084  17.080  25.592   5.947  0.0110  0.1434 -0.1253
    1DIPC   C1A 4085  16.743  25.342   5.624 -0.0813 -0.0007  0.1193
    1DIPC   D2A 4086  17.103  25.358   5.354  0.2000  0.4644 -0.1246
    1DIPC   D3A 4087  17.332  25.676   5.079  0.0406 -0.1645  0.2010
    1DIPC   C4A 4088  17.015  25.894   4.764  0.4241  0.0056  0.4258
    1DIPC   C1B 4089  17.409  25.669   5.658 -0.1034  0.1717 -0.1303
    1DIPC   D2B 4090  17.633  25.966   5.435 -0.1665 -0.3402 -0.0164
    1DIPC   D3B 4091  17.283  26.154   5.168 -0.2461 -0.1880 -0.0631
    1DIPC   C4B 4092  16.906  26.277   5.169 -0.0901 -0.0556 -0.1203
    1DIPC   NC3 4093  13.455  28.546   7.103 -0.1352 -0.2043 -0.0977
    1DIPC   PO4 4094  13.171  28.855   7.039 -0.2398  0.1854  0.1713
    1DIPC   GL1 4095  13.458  29.048   6.821 -0.4198 -0.1343  0.2666
    1DIPC   GL2 4096  13.492  29.341   7.010  0.1155 -0.1841 -0.0966
    1DIPC   C1A 4097  13.510  29.008   6.375  0.1702 -0.3691  0.0065
    1DIPC   D2A 4098  13.722  29.029   6.053 -0.0130 -0.0104  0.0749
    1DIPC   D3A 4099  14.135  29.213   5.973  0.1029  0.2312  0.0646
    1DIPC   C4A 4100  14.453  29.081   5.652 -0.0662  0.2888 -0.0074
    1DIPC   C1B 4101  13.772  29.409   6.630 -0.1120  0.0784  0.1008
    1DIPC   D2B 4102  13.788  29.509   6.198 -0.2264 -0.0794  0.0163
    1DIPC   D3B 4103  14.240  29.419   6.468 -0.1470  0.3083 -0.1582
    1DIPC   C4B 4104  14.595  29.250   6.166 -0.3620  0.0469  0.0113
    1DIPC   NC3 4105   7.105  15.107   7.331 -0.0801  0.2829 -0.1225
    1DIPC   PO4 4106   7.026  14.677   7.128 -0.0115 -0.0429  0.1739
    1DIPC   GL1 4107   6.966  14.555   6.628  0.3060  0.1997 -0.1353
    1DIPC   GL2 4108   7.302  14.705   6.442  0.2182 -0.2117 -0.0419
    1DIPC   C1A 4109   6.929  14.389   6.212  0.2571 -0.0277  0.3642
    1DIPC   D2A 4110   6.709  14.186   5.873 -0.2113 -0.1237 -0.1280
    1DIPC   D3A 4111   6.696  14.284   5.480  0.0313 -0.0971  0.1694
    1DIPC   C4A 4112   6.348  14.133   5.140  0.1829  0.2556  0.0659
    1DIPC   C1B 4113   7.200  14.888   6.035  0.1173 -0.1410  0.1809
    1DIPC   D2B 4114   7.310  14.872   5.606  0.2096  0.0956  0.0220
    1DIPC   D3B 4115   7.496  14.602   5.422  0.1757  0.2106  0.1219
    1DIPC   C4B 4116   7.604  14.520   5.072 -0.0184 -0.0208  0.0943
    1DIPC   NC3 4117   7.266   3.594   7.226  0.0583  0.1985 -0.3084
    1DIPC   PO4 4118   7.026   3.907   7.079 -0.1100  0.2180  0.3341
    1DIPC   GL1 4119   6.871   4.097   6.720  0.1705  0.2885  0.3537
    1DIPC   GL2 4120   7.161   4.246   6.659 -0.1196 -0.0246  0.1207
    1DIPC   C1A 4121   6.745   3.984   6.281  0.0670  0.0791 -0.0228
    1DIPC   D2A 4122   6.461   3.765   6.005 -0.3195  0.0037 -0.2956
    1DIPC   D3A 4123   6.534   3.903   5.532 -0.5112 -0.0116 -0.0084
    1DIPC   C4A 4124   6.440   3.534   5.382  0.0120 -0.2902  0.3915
    1DIPC   C1B 4125   6.951   4.463   6.307  0.1030  0.2038 -0.0498
    1DIPC   D2B 4126   6.827   4.298   5.835  0.0118  0.1487  0.0383
    1DIPC   D3B 4127   6.990   4.197   5.441 -0.1644 -0.0189 -0.3627
    1DIPC   C4B 4128   6.821   4.242   5.049 -0.3688 -0.0699 -0.0960
    1DIPC   NC3 4129  11.728   7.364   7.661  0.4329  0.0324  0.0881
    1DIPC   PO4 4130  11.928   7.707   7.624 -0.1563  0.0071  0.0909
    1DIPC   GL1 4131  11.859   7.707   7.097  0.0428  0.0576 -0.0718
    1DIPC   GL2 4132  11.911   7.957   6.877 -0.3136 -0.0653  0.2525
    1DIPC   C1A 4133  12.010   7.460   6.829  0.0291 -0.0719 -0.1268
    1DIPC   D2A 4134  12.220   7.192   6.530 -0.1386  0.0863  0.0623
    1DIPC   D3A 4135  12.452   7.325   6.250 -0.1194 -0.1661  0.0131
    1DIPC   C4A 4136  12.278   7.075   5.950  0.1766 -0.0009 -0.0230
    1DIPC   C1B 4137  12.158   7.943   6.504  0.2381 -0.3273  0.0952
    1DIPC   D2B 4138  12.226   7.806   6.139  0.1462  0.0371  0.1376
    1DIPC   D3B 4139  12.598   8.028   6.006 -0.2486 -0.1343  0.3571
    1DIPC   C4B 4140  12.493   8.433   5.789  0.0842  0.0669  0.0379
    1DIPC   NC3 4141  16.528  28.914   7.130 -0.0756  0.0101 -0.2516
    1DIPC   PO4 4142  16.523  29.304   6.877 -0.0945 -0.1306 -0.3327
    1DIPC   GL1 4143  16.474  29.248   6.478 -0.2676  0.0157  0.3320
    1DIPC   GL2 4144  16.378  29.591   6.386 -0.1737 -0.0502  0.0275
    1DIPC   C1A 4145  16.512  29.133   6.072 -0.0475 -0.2764  0.1687
    1DIPC   D2A 4146  16.726  28.949   5.652  0.1066 -0.2978 -0.2791
    1DIPC   D3A 4147  16.687  29.238   5.199 -0.2665 -0.2934  0.0916
    1DIPC   C4A 4148  16.409  29.063   4.888 -0.1870 -0.0967 -0.2685
    1DIPC   C1B 4149  16.790  29.524   6.238 -0.1275 -0.1506 -0.2118
    1DIPC   D2B 4150  17.158  29.339   6.308  0.2431  0.4725 -0.2362
    1DIPC   D3B 4151  16.906  28.976   6.390 -0.1439  0.1810 -0.4076
    1DIPC   C4B 4152  17.055  28.617   6.168 -0.0376  0.2271  0.1578
    1DIPC   NC3 4153   3.293  20.614   5.250 -0.3016 -0.0771 -0.0237
    1DIPC   PO4 4154   3.060  20.506   4.939 -0.1709  0.3835  0.1613
    1DIPC   GL1 4155   3.102  20.530   4.597  0.0469 -0.0788  0.0423
    1DIPC   GL2 4156   2.801  20.295   4.525  0.0926  0.0986 -0.0367
    1DIPC   C1A 4157   2.993  20.802   4.238  0.2207  0.0010 -0.2041
    1DIPC   D2A 4158   2.583  20.920   4.143 -0.0609  0.6100 -0.0352
    1DIPC   D3A 4159   2.583  20.810   3.778 -0.1061 -0.5177 -0.0493
    1DIPC   C4A 4160   2.284  20.638   3.556 -0.0526  0.1487  0.0248
    1DIPC   C1B 4161   2.740  20.402   4.047  0.0667  0.0390  0.0733
    1DIPC   D2B 4162   2.963  20.514   3.715  0.1963  0.2970 -0.1695
    1DIPC   D3B 4163   2.634  20.319   3.517 -0.2575  0.1243 -0.0332
    1DIPC   C4B 4164   2.704  19.850   3.237  0.0675  0.0006  0.0110
    1DIPC   NC3 4165  13.004   5.227   7.702 -0.1069 -0.1568 -0.4623
    1DIPC   PO4 4166  12.709   5.494   7.537  0.0106  0.2349 -0.0033
    1DIPC   GL1 4167  12.642   5.697   7.075  0.0313  0.0130 -0.2227
    1DIPC   GL2 4168  12.501   5.968   6.939  0.4298  0.0095 -0.0036
    1DIPC   C1A 4169  12.266   5.559   6.840  0.0835 -0.2351  0.0322
    1DIPC   D2A 4170  12.249   5.439   6.431 -0.0396  0.2438 -0.0433
    1DIPC   D3A 4171  12.570   5.391   6.034 -0.0456 -0.1204  0.0823
    1DIPC   C4A 4172  12.521   5.487   5.526 -0.1259  0.2278 -0.0408
    1DIPC   C1B 4173  12.363   6.270   6.706 -0.1705  0.2334 -0.0137
    1DIPC   D2B 4174  12.306   6.630   6.426 -0.0918  0.0363  0.1249
    1DIPC   D3B 4175  12.750   6.570   6.521  0.1201  0.3075 -0.3045
    1DIPC   C4B 4176  12.810   6.317   6.944 -0.0964  0.2397  0.1095
    1DIPC   NC3 4177   9.062  28.958   6.973 -0.0828 -0.0281 -0.1149
    1DIPC   PO4 4178   8.629  29.066   6.983 -0.0109 -0.1125  0.1627
    1DIPC   GL1 4179   8.497  29.298   6.684 -0.0317 -0.2138  0.2090
    1DIPC   GL2 4180   8.334  29.572   6.766  0.2840 -0.0800  0.0353
    1DIPC   C1A 4181   8.515  29.573   6.288  0.1825  0.2520 -0.1368
    1DIPC   D2A 4182   8.361  29.652   5.898 -0.2623 -0.1912  0.2404
    1DIPC   D3A 4183   8.572  29.350   5.723  0.0984 -0.3558 -0.1688
    1DIPC   C4A 4184   8.597  29.003   5.516 -0.1933  0.1668  0.1130
    1DIPC   C1B 4185   8.013  29.664   6.427 -0.0091 -0.3429 -0.2360
    1DIPC   D2B 4186   7.926  29.931   6.119  0.3232 -0.0626  0.3353
    1DIPC   D3B 4187   7.654  29.670   6.063  0.0567  0.1465  0.0953
    1DIPC   C4B 4188   7.854  29.270   6.176  0.0368  0.0644  0.1607
    1DIPC   NC3 4189  26.518  17.232   5.718  0.0008  0.0154  0.1909
    1DIPC   PO4 4190  26.756  16.798   5.750 -0.0606 -0.2233  0.0155
    1DIPC   GL1 4191  26.767  17.003   5.395  0.0261 -0.3960  0.1700
    1DIPC   GL2 4192  26.991  17.094   5.273 -0.1398 -0.2531  0.1083
    1DIPC   C1A 4193  26.502  16.864   5.063 -0.3701 -0.0536  0.3719
    1DIPC   D2A 4194  26.126  16.954   4.957 -0.0713  0.0099  0.0029
    1DIPC   D3A 4195  26.193  16.555   4.724 -0.3313  0.2553  0.0017
    1DIPC   C4A 4196  25.902  16.476   4.321  0.1747 -0.0931  0.4670
    1DIPC   C1B 4197  26.933  17.029   4.765  0.0293  0.0577 -0.0167
    1DIPC   D2B 4198  26.492  16.940   4.577  0.0926 -0.1130  0.2847
    1DIPC   D3B 4199  26.169  16.905   4.319  0.0210 -0.0889  0.0199
    1DIPC   C4B 4200  26.169  16.710   3.916 -0.1348  0.0713 -0.1529
    1DIPC   NC3 4201  29.677   1.383   7.230  0.0056  0.3141  0.4316
    1DIPC   PO4 4202  29.860   1.506   6.835  0.0949  0.0135  0.0823
    1DIPC   GL1 4203  29.716   1.369   6.459  0.0208  0.0186 -0.3651
    1DIPC   GL2 4204  29.446   1.098   6.338 -0.0776 -0.2499  0.3131
    1DIPC   C1A 4205  29.998   1.347   6.087 -0.2032 -0.1047 -0.0845
    1DIPC   D2A 4206  30.260   1.421   5.792  0.1429  0.0382  0.1753
    1DIPC   D3A 4207  30.442   1.161   5.504 -0.3751 -0.2041 -0.1763
    1DIPC   C4A 4208  30.686   1.240   5.120 -0.1464 -0.1644  0.1932
    1DIPC   C1B 4209  29.546   1.203   5.868  0.0208  0.3316 -0.3367
    1DIPC   D2B 4210  29.858   1.351   5.463 -0.1947 -0.2112 -0.1842
    1DIPC   D3B 4211  29.625   1.113   5.271 -0.0322  0.1103 -0.2076
    1DIPC   C4B 4212  29.258   1.295   4.928 -0.0583  0.1175  0.2066
    1DIPC   NC3 4213  10.258  26.904   6.654 -0.4192 -0.0082 -0.1005
    1DIPC   PO4 4214  10.594  26.904   6.337  0.0800  0.0364  0.1593
    1DIPC   GL1 4215  10.759  27.173   5.982  0.1204 -0.2196  0.0353
    1DIPC   GL2 4216  10.995  27.000   5.718 -0.1792 -0.2227 -0.0185
    1DIPC   C1A 4217  10.728  27.345   5.442  0.1649  0.1127  0.1365
    1DIPC   D2A 4218  10.682  27.465   5.014  0.2608 -0.0977 -0.1718
    1DIPC   D3A 4219  10.971  27.251   4.841  0.1871  0.1652 -0.3029
    1DIPC   C4A 4220  11.072  27.027   5.181  0.0618  0.0769 -0.0604
    1DIPC   C1B 4221  10.605  26.913   5.561 -0.1613  0.1475  0.0245
    1DIPC   D2B 4222  10.152  26.932   5.422 -0.0921 -0.0106  0.0381
    1DIPC   D3B 4223   9.971  26.899   5.045 -0.2255  0.1995 -0.0361
    1DIPC   C4B 4224  10.160  26.934   4.648 -0.0623 -0.3664 -0.1796
    1DIPC   NC3 4225   4.096  28.882   7.990  0.1985  0.0260  0.2169
    1DIPC   PO4 4226   3.963  28.816   7.545  0.0300 -0.2982 -0.1050
    1DIPC   GL1 4227   4.024  28.750   7.086 -0.2377  0.1804  0.1109
    1DIPC   GL2 4228   4.225  28.355   6.978 -0.0819 -0.2168 -0.2259
    1DIPC   C1A 4229   4.055  28.755   6.632  0.2061 -0.0284  0.1064
    1DIPC   D2A 4230   4.079  29.175   6.372  0.3381  0.0531  0.2697
    1DIPC   D3A 4231   3.818  29.044   6.033 -0.1506  0.2879 -0.0994
    1DIPC   C4A 4232   3.585  29.324   5.789 -0.0301 -0.0402  0.0222
    1DIPC   C1B 4233   4.541  28.659   6.812  0.1139 -0.3303 -0.1955
    1DIPC   D2B 4234   4.567  28.872   6.422  0.1502 -0.0206 -0.1736
    1DIPC   D3B 4235   4.243  28.694   6.130  0.0814  0.2887 -0.5615
    1DIPC   C4B 4236   4.437  28.695   5.712 -0.1361  0.1455  0.1325
    1DIPC   NC3 4237  19.026   5.366   7.522 -0.0070  0.1234 -0.2410
    1DIPC   PO4 4238  19.100   5.367   7.145  0.1661 -0.1413  0.0976
    1DIPC   GL1 4239  19.229   5.376   6.664  0.1895  0.0813  0.1183
    1DIPC   GL2 4240  19.191   5.668   6.409  0.3793 -0.1944 -0.0829
    1DIPC   C1A 4241  18.974   5.256   6.307 -0.0390  0.2210  0.0977
    1DIPC   D2A 4242  19.247   4.995   6.068  0.1632 -0.0003 -0.1230
    1DIPC   D3A 4243  19.129   4.985   5.698 -0.1734  0.1436 -0.2187
    1DIPC   C4A 4244  18.954   5.411   5.641  0.0173  0.2292 -0.4149
    1DIPC   C1B 4245  19.258   5.643   5.972  0.2417  0.1376 -0.0123
    1DIPC   D2B 4246  19.474   5.282   5.709 -0.2853 -0.0627 -0.2822
    1DIPC   D3B 4247  19.340   5.588   5.362  0.2459 -0.0424  0.0344
    1DIPC   C4B 4248  18.975   5.809   5.421  0.1384  0.3211 -0.1059
    1DIPC   NC3 4249   5.180  21.107   5.330 -0.1525 -0.1302  0.0561
    1DIPC   PO4 4250   4.667  21.106   5.319 -0.0740 -0.5598 -0.3295
    1DIPC   GL1 4251   4.860  21.076   4.900  0.0193  0.2674  0.0323
    1DIPC   GL2 4252   5.012  21.389   4.770  0.2393 -0.3514  0.0468
    1DIPC   C1A 4253   5.147  20.856   4.683  0.0498  0.1282  0.1188
    1DIPC   D2A 4254   5.332  21.041   4.300  0.1643 -0.0314 -0.1786
    1DIPC   D3A 4255   5.518  20.651   4.187 -0.0813  0.0455 -0.2657
    1DIPC   C4A 4256   5.418  20.502   3.743  0.1546  0.1563  0.1668
    1DIPC   C1B 4257   4.959  21.432   4.309 -0.0879 -0.1469  0.1914
    1DIPC   D2B 4258   5.418  21.460   3.977  0.1343  0.0456 -0.4434
    1DIPC   D3B 4259   5.792  21.308   4.127  0.2361  0.0223  0.0288
    1DIPC   C4B 4260   6.152  21.606   4.193  0.0803 -0.1340  0.2292
    1DIPC   NC3 4261   6.941  17.388   7.077 -0.0083  0.2824 -0.0471
    1DIPC   PO4 4262   6.969  17.457   6.703  0.0244 -0.2505  0.0767
    1DIPC   GL1 4263   7.363  17.432   6.415  0.2944 -0.0539  0.1546
    1DIPC   GL2 4264   7.634  17.273   6.398 -0.2983 -0.0503  0.0768
    1DIPC   C1A 4265   7.326  17.328   5.968  0.0027  0.0866 -0.2108
    1DIPC   D2A 4266   7.414  17.156   5.625  0.2167 -0.2155  0.1723
    1DIPC   D3A 4267   7.445  16.885   5.179  0.0060  0.0208  0.3025
    1DIPC   C4A 4268   7.489  17.094   4.837  0.2662 -0.0675 -0.0967
    1DIPC   C1B 4269   7.886  17.514   6.004  0.0193  0.2208  0.1862
    1DIPC   D2B 4270   8.316  17.390   5.926  0.0661 -0.2722  0.0229
    1DIPC   D3B 4271   8.310  17.389   5.469 -0.2996 -0.0248 -0.0917
    1DIPC   C4B 4272   8.369  17.071   5.243  0.0255 -0.1221 -0.0493
    1DIPC   NC3 4273  27.190   8.275   6.039 -0.1907 -0.0067  0.3496
    1DIPC   PO4 4274  27.488   8.471   5.898 -0.1727  0.0761  0.2079
    1DIPC   GL1 4275  27.289   8.367   5.552 -0.1339 -0.2301  0.2337
    1DIPC   GL2 4276  27.321   8.704   5.423  0.1968 -0.0063 -0.3151
    1DIPC   C1A 4277  27.330   8.282   5.133  0.1682 -0.1023  0.0318
    1DIPC   D2A 4278  27.598   8.517   4.834 -0.2153  0.2382 -0.1499
    1DIPC   D3A 4279  27.451   8.877   4.871  0.1875 -0.0408 -0.1649
    1DIPC   C4A 4280  27.435   9.026   4.415 -0.0964  0.0204  0.0210
    1DIPC   C1B 4281  27.739   8.810   5.432 -0.0117 -0.0995  0.1091
    1DIPC   D2B 4282  28.090   8.844   5.386 -0.1999  0.1887 -0.0394
    1DIPC   D3B 4283  28.386   8.565   5.303 -0.0209  0.0289  0.0101
    1DIPC   C4B 4284  28.664   8.435   4.948 -0.5601  0.1592 -0.0563
    1DIPC   NC3 4285  26.517   7.970   6.546 -0.0706 -0.0323 -0.0718
    1DIPC   PO4 4286  26.581   8.060   6.116 -0.1376 -0.0114  0.4162
    1DIPC   GL1 4287  26.742   7.785   5.748  0.1955 -0.2453 -0.4609
    1DIPC   GL2 4288  26.931   7.988   5.737  0.1380 -0.2843 -0.1791
    1DIPC   C1A 4289  26.817   7.534   5.376 -0.0904 -0.0475  0.0366
    1DIPC   D2A 4290  26.906   7.326   5.026  0.0081 -0.2024 -0.3980
    1DIPC   D3A 4291  26.688   7.261   4.704  0.2705 -0.4061  0.0580
    1DIPC   C4A 4292  26.356   7.348   4.346 -0.0257  0.1264  0.2486
    1DIPC   C1B 4293  26.822   8.060   5.335 -0.0102  0.2657  0.0337
    1DIPC   D2B 4294  26.881   8.000   4.905 -0.5221  0.4063  0.1531
    1DIPC   D3B 4295  27.272   8.082   4.675  0.1158  0.1363  0.3348
    1DIPC   C4B 4296  27.196   8.143   4.222  0.0019  0.2245 -0.1354
    1DIPC   NC3 4297  23.360   3.805   6.795 -0.2616 -0.2054 -0.2213
    1DIPC   PO4 4298  23.979   3.714   6.853  0.2144 -0.1235  0.1474
    1DIPC   GL1 4299  24.236   3.639   6.531 -0.1221 -0.0112 -0.1443
    1DIPC   GL2 4300  24.261   3.351   6.436  0.0028  0.0143  0.1855
    1DIPC   C1A 4301  24.299   3.874   6.009  0.1929 -0.0067 -0.3419
    1DIPC   D2A 4302  24.719   4.050   5.884  0.1435 -0.3180  0.1522
    1DIPC   D3A 4303  24.696   4.320   5.531  0.3813 -0.2157 -0.0610
    1DIPC   C4A 4304  24.671   4.798   5.485  0.0013  0.3550 -0.0351
    1DIPC   C1B 4305  24.389   3.354   5.989  0.0867  0.3162 -0.0932
    1DIPC   D2B 4306  24.385   3.157   5.659 -0.0328 -0.1824 -0.0572
    1DIPC   D3B 4307  23.977   3.007   5.425 -0.0768 -0.0980 -0.0954
    1DIPC   C4B 4308  23.829   3.208   5.035 -0.2396 -0.5906 -0.3011
    1DIPC   NC3 4309  26.049  20.432   6.634  0.0883  0.0939 -0.1160
    1DIPC   PO4 4310  26.073  20.278   6.217  0.0655  0.1877 -0.0062
    1DIPC   GL1 4311  26.134  20.542   5.864  0.1469 -0.0510 -0.0162
    1DIPC   GL2 4312  25.959  20.808   5.883  0.1271 -0.3252 -0.2028
    1DIPC   C1A 4313  26.357  20.425   5.485 -0.0486 -0.0561  0.3386
    1DIPC   D2A 4314  26.772  20.384   5.090 -0.3232 -0.1353 -0.0864
    1DIPC   D3A 4315  26.658  20.683   4.838 -0.0224 -0.0871  0.1383
    1DIPC   C4A 4316  26.720  20.754   4.373 -0.2411  0.1969  0.3256
    1DIPC   C1B 4317  26.275  20.938   5.486  0.2921 -0.1378 -0.1075
    1DIPC   D2B 4318  26.267  21.005   5.054  0.0799  0.0200  0.0187
    1DIPC   D3B 4319  25.910  20.867   4.816  0.1002  0.0466 -0.2736
    1DIPC   C4B 4320  25.777  20.447   4.713 -0.1695 -0.0427 -0.0068
    1DIPC   NC3 4321  23.007  29.690   6.637 -0.2021  0.0813 -0.0418
    1DIPC   PO4 4322  22.623  29.967   6.546  0.1644 -0.1480  0.2962
    1DIPC   GL1 4323  22.436  30.026   6.056 -0.4511 -0.0746  0.1659
    1DIPC   GL2 4324  22.190  29.867   5.983 -0.2815  0.0634 -0.2328
    1DIPC   C1A 4325  22.444  30.105   5.579  0.1207  0.2544  0.4346
    1DIPC   D2A 4326  22.813  30.069   5.241 -0.0345 -0.1064  0.1768
    1DIPC   D3A 4327  22.727  29.906   4.876 -0.1325  0.1880 -0.1455
    1DIPC   C4A 4328  22.359  29.578   4.776 -0.3426  0.0473  0.2057
    1DIPC   C1B 4329  22.241  29.628   5.664  0.1371  0.0378  0.2003
    1DIPC   D2B 4330  22.622  29.306   5.481 -0.1185  0.1755 -0.1602
    1DIPC   D3B 4331  22.543  29.536   5.240 -0.1507  0.0678  0.0745
    1DIPC   C4B 4332  22.250  29.907   5.174  0.0850 -0.0854 -0.1565
    1DIPC   NC3 4333  21.244  23.865   6.769  0.2571 -0.0603 -0.0746
    1DIPC   PO4 4334  21.232  23.601   6.407 -0.3489 -0.1869  0.2714
    1DIPC   GL1 4335  21.436  23.829   6.072 -0.1215  0.2676  0.1274
    1DIPC   GL2 4336  21.699  24.100   6.141  0.1220 -0.2358 -0.0550
    1DIPC   C1A 4337  21.327  23.854   5.651 -0.0131  0.0038  0.2110
    1DIPC   D2A 4338  21.078  23.947   5.435  0.0546  0.0525 -0.2233
    1DIPC   D3A 4339  21.012  24.093   5.024  0.3374  0.2640 -0.1563
    1DIPC   C4A 4340  21.146  23.917   4.739 -0.1102 -0.0231 -0.1925
    1DIPC   C1B 4341  21.774  24.325   5.920 -0.0414 -0.0669 -0.2104
    1DIPC   D2B 4342  21.831  24.665   5.683 -0.1070  0.1397  0.1385
    1DIPC   D3B 4343  21.734  24.658   5.144 -0.0161  0.2273  0.1276
    1DIPC   C4B 4344  21.562  24.984   4.968  0.1752 -0.1232 -0.0788
    1DIPC   NC3 4345  10.034   0.724   7.673 -0.3040  0.0939 -0.0434
    1DIPC   PO4 4346  10.353   0.819   7.354 -0.0295  0.2818 -0.0860
    1DIPC   GL1 4347  10.376   0.936   6.946  0.2365 -0.0218 -0.0029
    1DIPC   GL2 4348  10.718   0.983   6.851  0.2352  0.1522  0.2209
    1DIPC   C1A 4349  10.304   1.319   6.716  0.2304  0.0441 -0.1948
    1DIPC   D2A 4350  10.011   1.585   6.592  0.4289  0.2391 -0.0824
    1DIPC   D3A 4351   9.874   1.275   6.362 -0.1066  0.1407 -0.0702
    1DIPC   C4A 4352   9.353   1.228   6.137 -0.0707 -0.0765  0.1046
    1DIPC   C1B 4353  10.582   0.996   6.401  0.4111  0.0115 -0.1716
    1DIPC   D2B 4354  10.392   0.993   5.968  0.3498  0.2560 -0.0880
    1DIPC   D3B 4355  10.008   1.012   5.855 -0.1034 -0.2054 -0.5027
    1DIPC   C4B 4356   9.858   0.727   5.518 -0.3460  0.1390  0.0986
    1DIPC   NC3 4357  25.423  29.539   6.743 -0.0333 -0.0963 -0.3083
    1DIPC   PO4 4358  25.645  29.206   6.445 -0.0496  0.2645  0.1896
    1DIPC   GL1 4359  25.479  28.952   5.977  0.1267  0.1418 -0.3270
    1DIPC   GL2 4360  25.870  28.925   5.900  0.1284  0.0746  0.2215
    1DIPC   C1A 4361  25.074  29.057   5.741 -0.1010  0.0858  0.2982
    1DIPC   D2A 4362  24.678  28.897   5.663  0.0744  0.0298  0.0871
    1DIPC   D3A 4363  24.520  28.673   5.313 -0.1583 -0.2675 -0.0948
    1DIPC   C4A 4364  24.876  28.401   5.024 -0.0317  0.0701 -0.1326
    1DIPC   C1B 4365  25.634  29.190   5.544 -0.4114 -0.0060  0.1328
    1DIPC   D2B 4366  25.677  29.588   5.586  0.1899  0.1293  0.1010
    1DIPC   D3B 4367  25.189  29.610   5.647 -0.1002 -0.1658 -0.0037
    1DIPC   C4B 4368  24.985  29.705   5.295  0.2976  0.1718 -0.0497
    1DIPC   NC3 4369   2.829   0.435   7.802 -0.3787  0.1328  0.3268
    1DIPC   PO4 4370   3.021   0.652   7.342 -0.0479 -0.3038 -0.1249
    1DIPC   GL1 4371   3.193   0.490   6.956  0.0739  0.1931  0.1689
    1DIPC   GL2 4372   3.408   0.276   7.037 -0.2939 -0.0525  0.2162
    1DIPC   C1A 4373   3.420   0.496   6.607 -0.3522  0.0391  0.0279
    1DIPC   D2A 4374   3.684   0.360   6.272 -0.1329  0.2975 -0.0800
    1DIPC   D3A 4375   3.573   0.666   6.040 -0.1736  0.0992  0.0275
    1DIPC   C4A 4376   3.625   0.606   5.699  0.2034 -0.0954  0.0678
    1DIPC   C1B 4377   3.716   0.104   6.706 -0.4071  0.2358 -0.2552
    1DIPC   D2B 4378   3.855  -0.099   6.269  0.3765 -0.1196 -0.1106
    1DIPC   D3B 4379   4.195   0.120   6.340 -0.0498 -0.2328  0.3291
    1DIPC   C4B 4380   4.631  -0.046   6.175  0.1325  0.1358 -0.0169
    1DIPC   NC3 4381   1.140  28.205   6.830 -0.3486  0.0128  0.2408
    1DIPC   PO4 4382   0.668  28.123   6.701 -0.2117  0.0779  0.2403
    1DIPC   GL1 4383   0.404  28.048   6.333 -0.1440 -0.0009 -0.0644
    1DIPC   GL2 4384   0.273  27.751   6.279 -0.0556  0.2857  0.0064
    1DIPC   C1A 4385   0.062  28.113   5.985 -0.0662 -0.1916  0.3469
    1DIPC   D2A 4386  -0.245  27.996   5.629 -0.0725  0.1521 -0.0528
    1DIPC   D3A 4387  -0.257  27.551   5.689  0.0853  0.0371 -0.1983
    1DIPC   C4A 4388  -0.488  27.289   5.937  0.1533 -0.2125 -0.0121
    1DIPC   C1B 4389   0.276  27.597   5.756  0.0700 -0.1103  0.2552
    1DIPC   D2B 4390   0.801  27.632   5.517 -0.1369 -0.1763  0.1997
    1DIPC   D3B 4391   0.906  27.844   5.084 -0.0392 -0.1685  0.1119
    1DIPC   C4B 4392   1.000  27.432   4.760  0.0610  0.0721  0.1229
    1DIPC   NC3 4393  14.394  25.700   6.977 -0.1737  0.0037  0.0529
    1DIPC   PO4 4394  14.827  25.692   6.711 -0.1458 -0.0241  0.2216
    1DIPC   GL1 4395  14.794  25.720   6.191 -0.1550 -0.0940 -0.1746
    1DIPC   GL2 4396  14.684  26.041   6.032 -0.0646  0.3388 -0.3145
    1DIPC   C1A 4397  14.405  25.615   5.949  0.1062 -0.3257  0.1479
    1DIPC   D2A 4398  14.217  25.651   5.570  0.1601 -0.3255 -0.1056
    1DIPC   D3A 4399  14.379  25.206   5.633 -0.0627 -0.1616  0.0549
    1DIPC   C4A 4400  14.338  24.755   5.855 -0.2114  0.2888  0.0233
    1DIPC   C1B 4401  14.816  25.893   5.589  0.2166  0.0575 -0.4112
    1DIPC   D2B 4402  15.131  25.784   5.158 -0.0968  0.0407  0.1644
    1DIPC   D3B 4403  15.511  25.829   4.983  0.0292 -0.0129  0.1274
    1DIPC   C4B 4404  15.601  26.063   4.590  0.1529  0.1580 -0.1903
    1DIPC   NC3 4405  17.014   5.357   7.081 -0.0909 -0.0161 -0.0059
    1DIPC   PO4 4406  16.796   4.975   7.082 -0.0613  0.2521  0.0553
    1DIPC   GL1 4407  16.932   5.106   6.695  0.0843 -0.1060  0.0496
    1DIPC   GL2 4408  17.049   5.418   6.616 -0.0366 -0.3003  0.0188
    1DIPC   C1A 4409  16.914   5.067   6.227 -0.0833  0.0930  0.1042
    1DIPC   D2A 4410  16.828   4.996   5.792 -0.3265 -0.0022  0.0687
    1DIPC   D3A 4411  16.979   5.270   5.484 -0.0939  0.0493 -0.1020
    1DIPC   C4A 4412  17.441   5.307   5.529  0.2205 -0.0404 -0.2226
    1DIPC   C1B 4413  17.203   5.677   6.266  0.1505 -0.0186 -0.1036
    1DIPC   D2B 4414  17.103   5.913   5.908  0.2927 -0.0057 -0.0318
    1DIPC   D3B 4415  17.115   6.213   6.236 -0.3301 -0.0255 -0.0425
    1DIPC   C4B 4416  16.940   6.569   6.552  0.1418  0.3885  0.0720
    1DIPC   NC3 4417  20.524  22.650   6.740 -0.2992 -0.3758 -0.1307
    1DIPC   PO4 4418  20.453  22.816   6.320  0.1822 -0.4101 -0.1663
    1DIPC   GL1 4419  20.497  22.897   5.857  0.2103  0.2640 -0.2180
    1DIPC   GL2 4420  20.897  22.804   5.811 -0.1806 -0.1363  0.0696
    1DIPC   C1A 4421  20.671  22.887   5.387  0.6102 -0.0140  0.2566
    1DIPC   D2A 4422  21.027  22.750   5.218 -0.0952 -0.0855  0.2381
    1DIPC   D3A 4423  21.178  22.680   4.785 -0.1516 -0.0681 -0.1866
    1DIPC   C4A 4424  20.895  22.486   4.465 -0.1334  0.1697 -0.2055
    1DIPC   C1B 4425  21.126  23.139   5.498 -0.0305  0.4090  0.3685
    1DIPC   D2B 4426  21.417  23.329   5.259  0.0491  0.0941 -0.1852
    1DIPC   D3B 4427  21.493  23.591   4.897  0.0747 -0.2309  0.2922
    1DIPC   C4B 4428  21.599  24.051   4.992 -0.0960  0.1503  0.4102
    1DIPC   NC3 4429  10.820  26.421   6.381 -0.1269 -0.1448  0.0527
    1DIPC   PO4 4430  10.655  26.107   6.234  0.1158  0.1620  0.2679
    1DIPC   GL1 4431  10.376  26.101   5.956 -0.4463 -0.2184 -0.0763
    1DIPC   GL2 4432  10.288  25.797   5.955 -0.1004  0.1645  0.3416
    1DIPC   C1A 4433  10.037  26.137   5.577  0.0015 -0.0242 -0.3917
    1DIPC   D2A 4434  10.028  26.380   5.179 -0.0367  0.3081 -0.1190
    1DIPC   D3A 4435  10.299  26.501   4.915 -0.0779 -0.4530  0.0740
    1DIPC   C4A 4436  10.655  26.295   4.748 -0.0825 -0.0106 -0.0390
    1DIPC   C1B 4437  10.316  25.695   5.549  0.1631 -0.1624  0.0826
    1DIPC   D2B 4438  10.420  25.989   5.112  0.0187  0.0346  0.1264
    1DIPC   D3B 4439  10.063  25.908   4.920  0.0361 -0.1158  0.0005
    1DIPC   C4B 4440  10.188  26.096   4.573 -0.1018 -0.0484 -0.1697
    1DIPC   NC3 4441  18.782  23.507   6.906  0.0713  0.1469  0.0406
    1DIPC   PO4 4442  19.069  23.847   6.776  0.0267 -0.1194  0.0969
    1DIPC   GL1 4443  18.973  24.035   6.391  0.2243 -0.2559 -0.1547
    1DIPC   GL2 4444  18.800  24.328   6.385  0.1083  0.2130 -0.1215
    1DIPC   C1A 4445  19.035  24.309   5.906 -0.2204  0.3328 -0.0890
    1DIPC   D2A 4446  19.035  24.646   5.524  0.0078 -0.2143 -0.3340
    1DIPC   D3A 4447  19.117  24.741   5.137 -0.2561  0.1751  0.4905
    1DIPC   C4A 4448  19.279  24.430   5.003  0.1450 -0.1921 -0.0189
    1DIPC   C1B 4449  18.534  24.492   6.043 -0.3853  0.0536 -0.0806
    1DIPC   D2B 4450  18.553  24.266   5.628  0.3855 -0.1029 -0.0126
    1DIPC   D3B 4451  18.352  24.062   5.335  0.0238 -0.2888  0.0147
    1DIPC   C4B 4452  18.065  24.211   5.148 -0.1319  0.2554 -0.4074
    1DIPC   NC3 4453  24.432   5.800   6.947 -0.0634 -0.3189  0.0856
    1DIPC   PO4 4454  24.769   6.109   6.754  0.2308 -0.0288 -0.0838
    1DIPC   GL1 4455  24.620   6.022   6.382 -0.0047  0.0830  0.2391
    1DIPC   GL2 4456  24.625   6.373   6.254  0.0752 -0.1865  0.0274
    1DIPC   C1A 4457  24.553   5.769   5.879 -0.0362  0.1748  0.0571
    1DIPC   D2A 4458  24.690   5.414   5.629  0.2098  0.1892  0.0315
    1DIPC   D3A 4459  24.440   5.411   5.330 -0.1603 -0.1245 -0.0707
    1DIPC   C4A 4460  23.929   5.496   5.358  0.5576 -0.1127 -0.2204
    1DIPC   C1B 4461  24.655   6.559   5.777 -0.4201 -0.0152 -0.1878
    1DIPC   D2B 4462  24.565   6.496   5.348 -0.2744  0.1308  0.1981
    1DIPC   D3B 4463  24.349   6.236   5.090  0.3202 -0.0170  0.2118
    1DIPC   C4B 4464  24.007   6.279   4.810  0.1392  0.2354  0.2425
    1DIPC   NC3 4465   0.498  17.488   5.537  0.2297  0.1208  0.0298
    1DIPC   PO4 4466   0.132  17.779   5.325  0.2454 -0.0488  0.0678
    1DIPC   GL1 4467   0.271  17.574   5.000 -0.3221  0.1296 -0.1074
    1DIPC   GL2 4468   0.217  17.233   5.073 -0.1562 -0.2660  0.1316
    1DIPC   C1A 4469   0.397  17.460   4.578  0.1890 -0.2075  0.1116
    1DIPC   D2A 4470   0.595  17.616   4.177  0.0081  0.0892  0.3397
    1DIPC   D3A 4471   0.457  17.887   3.828 -0.1940 -0.2695 -0.3825
    1DIPC   C4A 4472   0.448  17.653   3.515 -0.0143  0.2648  0.1514
    1DIPC   C1B 4473  -0.111  17.210   4.826 -0.0323 -0.3417  0.0934
    1DIPC   D2B 4474  -0.429  16.943   4.682  0.0390  0.3183  0.1506
    1DIPC   D3B 4475  -0.330  16.833   4.241  0.1202  0.1668  0.1386
    1DIPC   C4B 4476  -0.283  16.426   3.847  0.2606 -0.0016  0.1442
    1DIPC   NC3 4477  11.591  11.412   7.458 -0.1240 -0.0017 -0.0392
    1DIPC   PO4 4478  11.766  11.061   7.435 -0.0639 -0.1151 -0.3529
    1DIPC   GL1 4479  11.887  10.854   7.073 -0.3978  0.1571 -0.0314
    1DIPC   GL2 4480  12.245  10.885   7.162  0.2490  0.0748 -0.0881
    1DIPC   C1A 4481  11.853  10.610   6.666  0.0964  0.0517  0.3781
    1DIPC   D2A 4482  11.696  10.731   6.285 -0.1819 -0.1146  0.1822
    1DIPC   D3A 4483  11.775  11.128   6.217 -0.1927 -0.2743  0.1166
    1DIPC   C4A 4484  11.925  11.268   6.629  0.0969 -0.1517 -0.0499
    1DIPC   C1B 4485  12.280  10.940   6.719 -0.0946 -0.0209 -0.0244
    1DIPC   D2B 4486  12.422  10.807   6.375 -0.1286  0.2311 -0.2316
    1DIPC   D3B 4487  12.155  10.808   6.074  0.3207 -0.0027 -0.1913
    1DIPC   C4B 4488  12.244  10.665   5.653 -0.2230  0.2396  0.5533
    1DIPC   NC3 4489  28.821  25.301   6.871 -0.1984 -0.0601 -0.1030
    1DIPC   PO4 4490  28.787  25.028   6.437  0.2060 -0.0806  0.0811
    1DIPC   GL1 4491  28.700  25.183   5.962 -0.0737 -0.0617  0.1379
    1DIPC   GL2 4492  28.545  24.996   5.684 -0.0612 -0.0377  0.2184
    1DIPC   C1A 4493  28.886  25.425   5.614  0.1529 -0.3202  0.0737
    1DIPC   D2A 4494  29.143  25.707   5.392  0.0409 -0.0322  0.1666
    1DIPC   D3A 4495  28.917  25.864   5.050 -0.3130 -0.1485  0.1347
    1DIPC   C4A 4496  28.975  25.681   4.655  0.2300 -0.4835  0.0741
    1DIPC   C1B 4497  28.517  25.158   5.359 -0.0810 -0.2250  0.0736
    1DIPC   D2B 4498  28.690  24.855   4.975  0.1550 -0.3790 -0.2273
    1DIPC   D3B 4499  28.180  24.900   4.892  0.1497  0.5541 -0.3307
    1DIPC   C4B 4500  27.954  24.895   4.543 -0.2306  0.5376  0.0985
    1DIPC   NC3 4501   8.811  22.543   5.586 -0.0982 -0.2788 -0.0394
    1DIPC   PO4 4502   8.947  22.204   5.876  0.0772  0.0330 -0.1017
    1DIPC   GL1 4503   8.918  21.885   5.622  0.2167  0.0504  0.3556
    1DIPC   GL2 4504   9.175  21.844   5.631 -0.0400  0.0758  0.0557
    1DIPC   C1A 4505   8.983  21.560   5.268  0.2184 -0.2308 -0.3469
    1DIPC   D2A 4506   9.053  21.152   5.024 -0.1608  0.1561 -0.2617
    1DIPC   D3A 4507   9.154  21.263   4.611  0.2866 -0.0249  0.0349
    1DIPC   C4A 4508   9.172  21.648   4.444 -0.0570 -0.5724  0.0640
    1DIPC   C1B 4509   9.292  21.993   5.132 -0.1407  0.5024 -0.0900
    1DIPC   D2B 4510   9.344  21.661   4.865  0.0767  0.0042 -0.1142
    1DIPC   D3B 4511   9.426  22.024   4.600  0.0598  0.0354  0.4377
    1DIPC   C4B 4512   9.337  21.994   4.095 -0.1449  0.2516 -0.0561
    1DIPC   NC3 4513   2.710   2.933   6.665  0.0476 -0.1930 -0.1710
    1DIPC   PO4 4514   2.485   2.561   6.686 -0.2029 -0.1640 -0.0925
    1DIPC   GL1 4515   2.492   2.442   6.315  0.4124 -0.0033 -0.0380
    1DIPC   GL2 4516   2.875   2.313   6.311  0.0670  0.1694  0.0437
    1DIPC   C1A 4517   2.148   2.400   6.020 -0.2758  0.2671 -0.0331
    1DIPC   D2A 4518   1.790   2.266   5.747 -0.0780 -0.0252 -0.1176
    1DIPC   D3A 4519   1.449   2.640   5.697  0.1623 -0.1441 -0.0752
    1DIPC   C4A 4520   1.195   2.526   5.279  0.3490 -0.0410  0.3257
    1DIPC   C1B 4521   3.188   2.598   5.996 -0.1738 -0.0047 -0.1155
    1DIPC   D2B 4522   3.544   2.846   5.722  0.1217 -0.3677 -0.1247
    1DIPC   D3B 4523   3.784   2.576   5.473 -0.3576  0.0637 -0.1572
    1DIPC   C4B 4524   3.714   2.305   5.190  0.0883  0.3728  0.1766
    1DIPC   NC3 4525  11.423   2.604   8.078 -0.0444 -0.2744  0.0525
    1DIPC   PO4 4526  11.627   2.555   7.752  0.1316 -0.1640  0.1469
    1DIPC   GL1 4527  11.442   2.673   7.315 -0.4521 -0.1930  0.0675
    1DIPC   GL2 4528  11.693   2.811   7.116  0.4262 -0.0297  0.2528
    1DIPC   C1A 4529  11.185   2.570   6.907  0.1230  0.2207  0.0073
    1DIPC   D2A 4530  10.787   2.669   6.711 -0.3176 -0.1175 -0.1803
    1DIPC   D3A 4531  11.064   2.577   6.347  0.1686  0.0275 -0.0208
    1DIPC   C4A 4532  10.941   2.773   5.921 -0.2458 -0.4180  0.1905
    1DIPC   C1B 4533  11.722   2.503   6.778  0.2802 -0.3568  0.0692
    1DIPC   D2B 4534  11.991   2.340   6.539  0.0950  0.0809  0.0274
    1DIPC   D3B 4535  11.814   2.297   6.151  0.2787 -0.0394  0.1720
    1DIPC   C4B 4536  11.984   1.933   5.801 -0.2036  0.0036 -0.2611
    1DIPC   NC3 4537  11.652  28.044   6.925 -0.1412  0.2707 -0.0521
    1DIPC   PO4 4538  11.433  28.329   6.735 -0.0548  0.0026 -0.2165
    1DIPC   GL1 4539  11.314  28.570   6.434 -0.1759  0.0534 -0.1265
    1DIPC   GL2 4540  11.205  28.329   6.284 -0.1023  0.0542  0.4152
    1DIPC   C1A 4541  11.433  28.877   6.084  0.2778 -0.2458  0.0500
    1DIPC   D2A 4542  11.474  29.017   5.702  0.0053 -0.1325 -0.3979
    1DIPC   D3A 4543  11.178  29.308   5.416  0.1545 -0.1115 -0.3277
    1DIPC   C4A 4544  10.988  29.626   5.534 -0.3213  0.0742 -0.2447
    1DIPC   C1B 4545  11.356  28.328   5.818  0.1768 -0.0561  0.0973
    1DIPC   D2B 4546  11.509  28.504   5.418 -0.1891 -0.2217  0.1569
    1DIPC   D3B 4547  11.523  28.142   5.177 -0.1589  0.2042  0.4460
    1DIPC   C4B 4548  11.858  28.232   4.890  0.1203 -0.2015  0.3373
    1DIPC   NC3 4549  21.485  22.236   6.351 -0.3549 -0.0804  0.1024
    1DIPC   PO4 4550  21.617  22.297   5.961  0.0286 -0.0601 -0.0140
    1DIPC   GL1 4551  21.549  22.022   5.697 -0.3181 -0.0810  0.0883
    1DIPC   GL2 4552  21.850  21.922   5.506 -0.0250 -0.0785 -0.0296
    1DIPC   C1A 4553  21.279  22.196   5.360  0.3000 -0.1333 -0.3836
    1DIPC   D2A 4554  20.961  22.283   5.003 -0.0350 -0.0758  0.2126
    1DIPC   D3A 4555  20.633  22.676   4.947 -0.0403 -0.1345 -0.0546
    1DIPC   C4A 4556  20.595  22.935   4.509  0.2963 -0.2247 -0.1781
    1DIPC   C1B 4557  21.739  21.982   5.075  0.0302  0.1188  0.0163
    1DIPC   D2B 4558  21.503  21.786   4.755  0.0238 -0.2170 -0.1459
    1DIPC   D3B 4559  21.677  22.015   4.360 -0.0564  0.0599  0.3996
    1DIPC   C4B 4560  21.793  21.866   3.958 -0.3339 -0.0217 -0.0457
    1DIPC   NC3 4561   4.338  24.728   5.589  0.1264 -0.0620 -0.2216
    1DIPC   PO4 4562   4.401  24.312   5.689 -0.3024 -0.3434  0.1619
    1DIPC   GL1 4563   4.333  24.315   5.219  0.0168  0.0148 -0.0350
    1DIPC   GL2 4564   4.187  24.047   5.059  0.0034  0.1259  0.1057
    1DIPC   C1A 4565   4.410  24.550   4.764  0.2567 -0.2323  0.0295
    1DIPC   D2A 4566   4.347  24.645   4.307  0.2467 -0.0918 -0.3134
    1DIPC   D3A 4567   4.744  24.465   4.029  0.1788  0.2154  0.0009
    1DIPC   C4A 4568   5.014  24.221   4.195  0.0317 -0.1938 -0.1596
    1DIPC   C1B 4569   4.268  24.097   4.671  0.1471  0.0903  0.0107
    1DIPC   D2B 4570   4.628  24.121   4.469 -0.3053 -0.3881  0.0066
    1DIPC   D3B 4571   4.768  23.834   4.288  0.0101  0.1767 -0.0405
    1DIPC   C4B 4572   4.944  23.835   3.818 -0.1615 -0.1211 -0.1405
    1DIPC   NC3 4573   6.465  23.755   6.096  0.1457 -0.1686  0.1922
    1DIPC   PO4 4574   6.465  23.444   5.872 -0.0830  0.1891 -0.0645
    1DIPC   GL1 4575   6.641  23.489   5.442  0.2949  0.0804 -0.2347
    1DIPC   GL2 4576   6.815  23.211   5.381  0.1092  0.0029 -0.0770
    1DIPC   C1A 4577   6.990  23.696   5.130  0.1080 -0.3342 -0.0762
    1DIPC   D2A 4578   7.057  23.873   4.743  0.2608 -0.0845 -0.0839
    1DIPC   D3A 4579   6.665  23.977   4.573  0.4327 -0.2888  0.1380
    1DIPC   C4A 4580   6.500  23.978   4.232 -0.0907  0.0344  0.2705
    1DIPC   C1B 4581   6.507  23.085   5.149  0.1004  0.2248 -0.0516
    1DIPC   D2B 4582   6.333  23.100   4.740 -0.2087  0.1441  0.1110
    1DIPC   D3B 4583   6.242  23.113   4.253 -0.0637 -0.2086  0.0680
    1DIPC   C4B 4584   6.073  23.529   3.981 -0.3455 -0.2137 -0.0190
    1DIPC   NC3 4585  15.339   2.800   7.723 -0.3330 -0.0104 -0.0538
    1DIPC   PO4 4586  14.915   2.860   7.596 -0.0097  0.1047  0.3706
    1DIPC   GL1 4587  14.527   3.069   7.203  0.1994  0.0693  0.0413
    1DIPC   GL2 4588  14.150   2.903   7.129  0.4580  0.2377  0.4044
    1DIPC   C1A 4589  14.291   3.232   6.808  0.0500  0.0029 -0.0306
    1DIPC   D2A 4590  14.087   3.060   6.374 -0.0203  0.1762 -0.1212
    1DIPC   D3A 4591  14.147   2.820   5.983 -0.1842  0.1940  0.0552
    1DIPC   C4A 4592  13.915   2.591   5.620  0.0151  0.1474  0.1709
    1DIPC   C1B 4593  14.290   2.722   6.758 -0.0631 -0.0367  0.1664
    1DIPC   D2B 4594  14.292   2.502   6.387  0.2836 -0.2456  0.2052
    1DIPC   D3B 4595  14.506   2.215   6.671  0.0673 -0.2277  0.1816
    1DIPC   C4B 4596  14.620   1.900   6.411 -0.0401  0.2581 -0.0981
    1DIPC   NC3 4597  15.620  27.812   6.470 -0.1200  0.0387 -0.1506
    1DIPC   PO4 4598  15.998  27.784   6.615  0.1829  0.3817  0.3346
    1DIPC   GL1 4599  16.017  27.591   6.169 -0.1973  0.2334  0.0874
    1DIPC   GL2 4600  15.954  27.852   6.016 -0.1458  0.0088  0.0284
    1DIPC   C1A 4601  15.773  27.350   6.010  0.0229 -0.1083  0.2671
    1DIPC   D2A 4602  15.611  26.867   6.095  0.1175 -0.4319 -0.2008
    1DIPC   D3A 4603  15.817  26.909   5.685 -0.3275 -0.0258  0.1479
    1DIPC   C4A 4604  16.004  27.167   5.438  0.3515 -0.3579 -0.0771
    1DIPC   C1B 4605  15.990  28.151   5.624 -0.2596  0.1879  0.1551
    1DIPC   D2B 4606  16.174  28.267   5.322 -0.1325  0.3457  0.2220
    1DIPC   D3B 4607  16.493  28.206   5.101  0.3947 -0.2089  0.0919
    1DIPC   C4B 4608  16.542  28.616   4.969 -0.0008 -0.1869 -0.1572
    1DIPC   NC3 4609   7.871   3.236   7.379 -0.1063 -0.0388  0.3184
    1DIPC   PO4 4610   7.879   3.332   6.946 -0.1611  0.1537  0.0444
    1DIPC   GL1 4611   7.529   3.281   6.734  0.2167  0.0725 -0.0323
    1DIPC   GL2 4612   7.315   3.653   6.536  0.1546 -0.0707  0.0753
    1DIPC   C1A 4613   7.374   3.163   6.321  0.1773  0.0587 -0.2246
    1DIPC   D2A 4614   7.359   3.296   5.968 -0.1863  0.0722  0.0736
    1DIPC   D3A 4615   6.942   3.158   6.026 -0.1555  0.4320 -0.4176
    1DIPC   C4A 4616   6.628   3.297   5.855  0.2148  0.0335 -0.1416
    1DIPC   C1B 4617   6.930   3.552   6.493 -0.0526 -0.0098  0.1384
    1DIPC   D2B 4618   6.491   3.745   6.627  0.2766  0.1090 -0.1485
    1DIPC   D3B 4619   6.202   3.980   6.380  0.5321 -0.0200 -0.1214
    1DIPC   C4B 4620   5.790   3.858   6.174 -0.3125  0.1438 -0.0320
    1DIPC   NC3 4621  29.459  17.628   5.316 -0.0278  0.2235  0.0645
    1DIPC   PO4 4622  29.534  18.031   5.401  0.1819 -0.4709 -0.0427
    1DIPC   GL1 4623  29.668  17.928   4.928  0.0760 -0.1576 -0.1684
    1DIPC   GL2 4624  29.868  17.828   5.060  0.0135 -0.1375  0.2133
    1DIPC   C1A 4625  29.936  18.211   4.638  0.2136  0.0941  0.1366
    1DIPC   D2A 4626  30.236  18.436   4.408 -0.3610  0.0637  0.1431
    1DIPC   D3A 4627  30.408  18.814   4.478  0.0680  0.0907  0.4524
    1DIPC   C4A 4628  30.312  19.222   4.633 -0.0585  0.1919 -0.2431
    1DIPC   C1B 4629  30.049  17.726   4.697 -0.1001  0.3577 -0.0191
    1DIPC   D2B 4630  30.276  17.682   4.212  0.2107  0.0629 -0.0061
    1DIPC   D3B 4631  30.403  17.352   3.924  0.0439  0.1928 -0.1275
    1DIPC   C4B 4632  30.933  17.375   3.790 -0.0058  0.0065 -0.0069
    1DIPC   NC3 4633  28.929  23.463   6.415 -0.1412  0.0519 -0.0371
    1DIPC   PO4 4634  28.919  22.986   6.485 -0.0136  0.2412  0.0623
    1DIPC   GL1 4635  28.869  22.713   6.067 -0.0443  0.2495  0.0026
    1DIPC   GL2 4636  29.047  22.839   5.783 -0.1829  0.0251  0.0990
    1DIPC   C1A 4637  28.579  22.710   5.663 -0.3532 -0.0123  0.1222
    1DIPC   D2A 4638  28.534  22.554   5.218  0.1260 -0.4469  0.0482
    1DIPC   D3A 4639  28.266  22.397   4.881 -0.0598  0.5471 -0.0845
    1DIPC   C4A 4640  28.370  22.069   4.669 -0.3084  0.4920 -0.0110
    1DIPC   C1B 4641  29.015  22.597   5.391  0.3833 -0.0586  0.1120
    1DIPC   D2B 4642  28.942  22.383   5.028 -0.0055  0.1115 -0.0132
    1DIPC   D3B 4643  28.730  22.731   4.777  0.1384  0.1103  0.1593
    1DIPC   C4B 4644  28.379  22.641   4.460  0.0390 -0.3001 -0.2895
    1DIPC   NC3 4645   8.079  26.892   6.549 -0.0480  0.2763  0.0397
    1DIPC   PO4 4646   8.242  27.313   6.539  0.0421 -0.1450 -0.0387
    1DIPC   GL1 4647   8.185  27.484   6.137  0.1123 -0.1328  0.0160
    1DIPC   GL2 4648   8.431  27.446   6.062 -0.2315 -0.2760  0.0088
    1DIPC   C1A 4649   8.110  27.435   5.695 -0.0507 -0.0944  0.2627
    1DIPC   D2A 4650   8.081  27.436   5.266 -0.0852 -0.2868  0.1388
    1DIPC   D3A 4651   7.700  27.241   5.354 -0.1498  0.1144  0.1463
    1DIPC   C4A 4652   7.706  26.840   5.427  0.1041  0.0469 -0.1789
    1DIPC   C1B 4653   8.710  27.538   5.622 -0.0062 -0.0758  0.0040
    1DIPC   D2B 4654   9.129  27.579   5.555 -0.2727  0.0332 -0.0250
    1DIPC   D3B 4655   9.490  27.659   5.607 -0.1619  0.3114 -0.1296
    1DIPC   C4B 4656   9.920  27.662   5.578  0.1775  0.0049  0.1095
    1DIPC   NC3 4657  15.500  25.131   6.523 -0.1233  0.0853 -0.0650
    1DIPC   PO4 4658  15.375  24.658   6.413  0.2614  0.0437  0.0178
    1DIPC   GL1 4659  15.495  24.593   6.078  0.0881 -0.0202  0.1605
    1DIPC   GL2 4660  15.312  24.301   6.002  0.1797  0.1804 -0.0278
    1DIPC   C1A 4661  15.492  24.709   5.619  0.4582  0.0974 -0.1056
    1DIPC   D2A 4662  15.111  24.702   5.309  0.2042  0.2310 -0.1574
    1DIPC   D3A 4663  14.711  24.843   5.519 -0.0273 -0.1415  0.0402
    1DIPC   C4A 4664  14.410  24.805   5.281 -0.0143 -0.1149  0.2796
    1DIPC   C1B 4665  15.087  24.315   5.625 -0.1708  0.0596 -0.2651
    1DIPC   D2B 4666  15.037  24.283   5.061  0.2338  0.0441  0.3340
    1DIPC   D3B 4667  14.678  24.589   4.910  0.0247  0.0106 -0.0209
    1DIPC   C4B 4668  14.754  25.059   5.057  0.3520  0.1386 -0.1317
    1DIPC   NC3 4669  21.640   2.095   6.618  0.2072  0.4773  0.1216
    1DIPC   PO4 4670  22.023   2.300   6.524 -0.2739  0.2383  0.1359
    1DIPC   GL1 4671  21.906   1.955   6.182 -0.2150 -0.3201 -0.3498
    1DIPC   GL2 4672  22.268   1.955   5.944  0.1997  0.0338  0.2257
    1DIPC   C1A 4673  21.886   1.602   5.871  0.3393 -0.1115  0.0660
    1DIPC   D2A 4674  21.653   1.597   5.506 -0.2107 -0.1742 -0.2668
    1DIPC   D3A 4675  21.905   1.227   5.278  0.1110 -0.1501 -0.2837
    1DIPC   C4A 4676  21.725   0.821   5.078 -0.0909 -0.3491 -0.2190
    1DIPC   C1B 4677  22.202   2.324   5.580 -0.3314  0.0955  0.1411
    1DIPC   D2B 4678  21.961   2.750   5.611  0.0575  0.0516 -0.0470
    1DIPC   D3B 4679  22.138   3.034   5.402 -0.1897 -0.1057  0.0052
    1DIPC   C4B 4680  22.544   3.028   5.021  0.1180 -0.3063 -0.1644
    1DIPC   NC3 4681   3.341  27.297   6.735 -0.1473  0.0965 -0.1169
    1DIPC   PO4 4682   3.745  27.229   6.958 -0.5012  0.1107 -0.1201
    1DIPC   GL1 4683   3.941  27.588   6.643  0.0595  0.1208 -0.2000
    1DIPC   GL2 4684   4.247  27.586   6.681 -0.0568 -0.1638  0.0361
    1DIPC   C1A 4685   4.061  27.999   6.461  0.2450 -0.2941  0.2039
    1DIPC   D2A 4686   4.292  28.146   6.136 -0.3987 -0.0356  0.1075
    1DIPC   D3A 4687   4.230  27.680   6.156  0.1259  0.1393 -0.1811
    1DIPC   C4A 4688   3.795  27.406   6.063 -0.2970 -0.2079  0.0055
    1DIPC   C1B 4689   4.651  27.630   6.561  0.4877 -0.0594  0.2901
    1DIPC   D2B 4690   5.009  27.917   6.455 -0.3263 -0.0713 -0.1894
    1DIPC   D3B 4691   4.754  27.987   6.114  0.1986 -0.0498 -0.1906
    1DIPC   C4B 4692   4.668  27.558   5.891  0.1042 -0.4024 -0.0351
    1DIPC   NC3 4693   6.621   0.625   8.120 -0.0633  0.1037  0.1266
    1DIPC   PO4 4694   6.610   0.778   7.648 -0.1119 -0.0522 -0.1280
    1DIPC   GL1 4695   6.509   0.954   7.249 -0.0547 -0.0493  0.1773
    1DIPC   GL2 4696   6.702   0.687   7.153  0.0045 -0.1501 -0.2001
    1DIPC   C1A 4697   6.347   0.903   6.906 -0.0409 -0.2344  0.0789
    1DIPC   D2A 4698   6.360   0.911   6.478  0.0727  0.1358 -0.0225
    1DIPC   D3A 4699   6.310   1.323   6.566  0.0009 -0.0162  0.1497
    1DIPC   C4A 4700   5.892   1.533   6.574 -0.0325 -0.0055 -0.1130
    1DIPC   C1B 4701   6.982   0.451   6.942  0.4567  0.4815  0.4941
    1DIPC   D2B 4702   7.178   0.467   6.502 -0.1466  0.1672 -0.2325
    1DIPC   D3B 4703   7.369   0.003   6.408  0.0545 -0.1495  0.1339
    1DIPC   C4B 4704   7.173  -0.253   6.088  0.0992  0.0404 -0.0992
    1DIPC   NC3 4705  27.082  13.556   5.362  0.2588 -0.0583  0.1938
    1DIPC   PO4 4706  26.813  13.924   5.606 -0.0316  0.0037  0.1190
    1DIPC   GL1 4707  26.523  13.825   5.212  0.0162 -0.0458  0.1852
    1DIPC   GL2 4708  26.241  14.023   5.151 -0.0436 -0.0895  0.1246
    1DIPC   C1A 4709  26.566  13.790   4.821 -0.0655  0.2393 -0.1255
    1DIPC   D2A 4710  26.727  13.605   4.422  0.2691  0.2522  0.1619
    1DIPC   D3A 4711  26.588  13.776   4.013  0.0562 -0.0715  0.1033
    1DIPC   C4A 4712  26.685  14.152   3.882  0.0362 -0.0247 -0.0354
    1DIPC   C1B 4713  26.195  14.134   4.655 -0.1432 -0.0574 -0.0879
    1DIPC   D2B 4714  25.998  14.501   4.479 -0.2100  0.6292  0.2908
    1DIPC   D3B 4715  26.255  14.897   4.306  0.0319  0.1524 -0.0965
    1DIPC   C4B 4716  26.447  14.706   3.984  0.2743 -0.2393 -0.3237
    1DIPC   NC3 4717   6.698  23.914   5.681  0.0091  0.5227 -0.0787
    1DIPC   PO4 4718   7.099  23.733   5.737  0.1705  0.1729  0.0610
    1DIPC   GL1 4719   7.351  23.525   5.411 -0.2876  0.2869 -0.0534
    1DIPC   GL2 4720   7.620  23.375   5.457  0.4221  0.0082 -0.0117
    1DIPC   C1A 4721   7.456  23.655   4.942  0.0014  0.0043 -0.2774
    1DIPC   D2A 4722   7.666  23.524   4.605  0.0929  0.0528  0.3110
    1DIPC   D3A 4723   7.343  23.592   4.317 -0.1746  0.2386 -0.2325
    1DIPC   C4A 4724   7.197  23.439   4.034 -0.1494  0.2033  0.3572
    1DIPC   C1B 4725   7.797  23.221   5.108  0.0507 -0.0920 -0.0286
    1DIPC   D2B 4726   7.897  23.012   4.667 -0.2207  0.0790 -0.5079
    1DIPC   D3B 4727   7.818  23.186   4.281  0.3234 -0.2676  0.0530
    1DIPC   C4B 4728   7.872  23.573   4.143 -0.0604  0.0910 -0.0316
    1DIPC   NC3 4729  17.580   5.982   7.424 -0.0493 -0.4181 -0.0950
    1DIPC   PO4 4730  17.344   6.334   7.410  0.2181 -0.1237  0.2956
    1DIPC   GL1 4731  17.449   6.351   7.003  0.0490 -0.1534 -0.3510
    1DIPC   GL2 4732  17.766   6.091   6.898  0.4114  0.0040 -0.2759
    1DIPC   C1A 4733  17.407   6.698   6.715  0.2409  0.0573  0.1169
    1DIPC   D2A 4734  17.303   7.194   6.552 -0.2162  0.0132 -0.1029
    1DIPC   D3A 4735  17.198   7.281   6.164 -0.2726 -0.1275  0.2110
    1DIPC   C4A 4736  17.298   6.842   6.207  0.1056 -0.0958 -0.1370
    1DIPC   C1B 4737  17.638   5.791   6.579 -0.2107  0.1564  0.1649
    1DIPC   D2B 4738  17.617   5.388   6.400 -0.0652 -0.2663 -0.1804
    1DIPC   D3B 4739  17.351   5.276   6.046 -0.1665  0.0349  0.1209
    1DIPC   C4B 4740  16.911   5.456   5.917 -0.2818 -0.3280  0.0071
    1DIPC   NC3 4741   2.046   2.643   6.877  0.0136  0.0500  0.6078
    1DIPC   PO4 4742   1.680   2.537   6.739 -0.0782 -0.0236 -0.4321
    1DIPC   GL1 4743   1.604   2.625   6.313  0.2966 -0.3541 -0.0572
    1DIPC   GL2 4744   1.375   2.382   6.125  0.2048 -0.0146  0.0717
    1DIPC   C1A 4745   1.839   2.857   5.964 -0.4443 -0.1764 -0.0761
    1DIPC   D2A 4746   1.702   3.308   5.966  0.0233  0.2066  0.0361
    1DIPC   D3A 4747   1.583   3.619   5.691  0.0888  0.1897  0.1604
    1DIPC   C4A 4748   1.635   3.486   5.307 -0.0244 -0.0603  0.2028
    1DIPC   C1B 4749   1.083   2.222   5.791 -0.0192  0.2262 -0.1784
    1DIPC   D2B 4750   0.974   1.912   5.378 -0.0276  0.3331 -0.1600
    1DIPC   D3B 4751   1.412   2.010   5.116  0.2234 -0.1011  0.0364
    1DIPC   C4B 4752   1.704   1.771   4.936 -0.0338  0.0874 -0.3008
    1DIPC   NC3 4753  22.855   9.201   6.593 -0.2151  0.1238 -0.2010
    1DIPC   PO4 4754  22.491   9.005   6.536 -0.1539 -0.0639 -0.3149
    1DIPC   GL1 4755  22.453   8.985   6.076  0.1142 -0.0677 -0.0950
    1DIPC   GL2 4756  22.553   8.730   5.898  0.1707 -0.0011 -0.0166
    1DIPC   C1A 4757  22.302   8.990   5.515 -0.3016  0.0725 -0.2259
    1DIPC   D2A 4758  22.281   9.207   5.170 -0.0317  0.1572 -0.2679
    1DIPC   D3A 4759  21.874   9.327   5.007  0.0009 -0.2805 -0.0777
    1DIPC   C4A 4760  21.885   9.605   4.709  0.0279 -0.0957 -0.0269
    1DIPC   C1B 4761  22.807   8.993   5.690  0.1823 -0.1375  0.2404
    1DIPC   D2B 4762  22.963   9.432   5.638 -0.1267  0.0983  0.0331
    1DIPC   D3B 4763  22.854   9.282   5.169 -0.0367 -0.2157 -0.1555
    1DIPC   C4B 4764  22.763   9.519   4.790 -0.1205  0.3736  0.3409
    1DIPC   NC3 4765   6.499   3.537   7.812 -0.0596  0.0256  0.2761
    1DIPC   PO4 4766   6.193   3.373   7.607  0.0420 -0.1385  0.0885
    1DIPC   GL1 4767   6.184   3.295   7.186 -0.1005 -0.1537  0.4160
    1DIPC   GL2 4768   6.163   3.581   6.908 -0.0937 -0.2016 -0.1733
    1DIPC   C1A 4769   5.892   3.077   6.821 -0.1750 -0.0546 -0.0972
    1DIPC   D2A 4770   5.950   2.627   6.543  0.2450  0.2099  0.2781
    1DIPC   D3A 4771   5.843   2.966   6.303  0.2242 -0.0820 -0.3452
    1DIPC   C4A 4772   5.595   3.347   6.468  0.1988 -0.2973  0.2706
    1DIPC   C1B 4773   6.125   3.432   6.486  0.2563 -0.2745  0.0450
    1DIPC   D2B 4774   6.101   3.441   6.121 -0.0467  0.1882  0.1912
    1DIPC   D3B 4775   5.800   3.119   5.828  0.2220  0.0182  0.1798
    1DIPC   C4B 4776   5.617   3.184   5.435 -0.2194  0.1119 -0.0151
    1DIPC   NC3 4777  27.586  14.253   5.482 -0.2051 -0.4392 -0.3181
    1DIPC   PO4 4778  27.456  13.876   5.305 -0.0027 -0.0192 -0.2111
    1DIPC   GL1 4779  27.449  13.714   4.959 -0.1111  0.1557 -0.0676
    1DIPC   GL2 4780  27.742  13.613   5.002 -0.0166  0.2090 -0.2103
    1DIPC   C1A 4781  27.227  13.551   4.663  0.0768 -0.2170 -0.2922
    1DIPC   D2A 4782  27.091  13.340   4.327 -0.4336  0.4819 -0.1295
    1DIPC   D3A 4783  27.221  13.229   3.839  0.2773 -0.1170 -0.2007
    1DIPC   C4A 4784  26.858  12.969   3.636  0.0097 -0.1431 -0.1138
    1DIPC   C1B 4785  27.723  13.692   4.494  0.1573  0.1435 -0.0642
    1DIPC   D2B 4786  27.478  13.563   4.093  0.0918  0.1177  0.2402
    1DIPC   D3B 4787  27.817  13.688   3.919  0.2898 -0.1143 -0.1071
    1DIPC   C4B 4788  28.086  13.447   3.562  0.0354 -0.1991  0.2696
    1DIPC   NC3 4789  24.908  22.122   6.230 -0.1029 -0.1107  0.1528
    1DIPC   PO4 4790  24.949  21.642   6.143  0.0979 -0.1209 -0.0530
    1DIPC   GL1 4791  25.006  21.712   5.768  0.0115  0.0854 -0.2267
    1DIPC   GL2 4792  25.243  21.871   5.546 -0.3732 -0.0087 -0.4095
    1DIPC   C1A 4793  24.726  21.767   5.386 -0.0406 -0.1274  0.0079
    1DIPC   D2A 4794  24.513  21.775   4.914 -0.1553 -0.0410 -0.0005
    1DIPC   D3A 4795  24.511  21.944   4.474 -0.0219 -0.2009 -0.1035
    1DIPC   C4A 4796  24.624  22.425   4.504  0.1145 -0.0787 -0.1201
    1DIPC   C1B 4797  25.185  21.854   5.142  0.3275 -0.0205 -0.0208
    1DIPC   D2B 4798  25.429  21.594   4.847  0.3397  0.2973 -0.1791
    1DIPC   D3B 4799  25.112  21.781   4.559  0.4163  0.3724  0.0435
    1DIPC   C4B 4800  24.956  21.626   4.202  0.0264 -0.0500 -0.0409
    1DIPC   NC3 4801  15.292  29.648   6.621 -0.0818  0.1858  0.1148
    1DIPC   PO4 4802  14.954  29.488   6.773 -0.0732  0.0004  0.3924
    1DIPC   GL1 4803  14.815  29.748   6.509 -0.2107  0.3847 -0.2564
    1DIPC   GL2 4804  15.007  29.614   6.193  0.1483 -0.0694 -0.2629
    1DIPC   C1A 4805  14.535  29.770   6.238 -0.4311 -0.1676  0.1593
    1DIPC   D2A 4806  14.564  29.597   5.824  0.2777  0.0812  0.1302
    1DIPC   D3A 4807  14.663  29.514   5.365 -0.3656 -0.0976 -0.0957
    1DIPC   C4A 4808  15.176  29.393   5.274 -0.3229 -0.1042  0.2023
    1DIPC   C1B 4809  15.075  29.804   5.859 -0.1953  0.1133  0.1058
    1DIPC   D2B 4810  14.989  29.874   5.426  0.0099 -0.1360 -0.2292
    1DIPC   D3B 4811  15.081  29.755   4.934  0.0135 -0.1617 -0.0788
    1DIPC   C4B 4812  15.250  30.063   4.665 -0.1852 -0.3848 -0.3121
    1DIPC   NC3 4813  22.704   3.284   6.561 -0.2370  0.2077 -0.1379
    1DIPC   PO4 4814  22.646   3.006   6.242  0.0782 -0.1086 -0.0148
    1DIPC   GL1 4815  22.792   2.859   5.821  0.1658 -0.1781  0.2942
    1DIPC   GL2 4816  22.507   2.785   5.578  0.1829 -0.4009  0.0138
    1DIPC   C1A 4817  23.054   2.744   5.507  0.1691  0.0700  0.2122
    1DIPC   D2A 4818  23.223   2.888   5.006  0.3198  0.4133 -0.0537
    1DIPC   D3A 4819  22.890   2.532   5.034 -0.0604  0.3800  0.1598
    1DIPC   C4A 4820  22.971   2.101   4.859 -0.2134 -0.0613 -0.0312
    1DIPC   C1B 4821  22.370   2.578   5.121  0.1318 -0.0533  0.0952
    1DIPC   D2B 4822  22.113   2.588   4.719  0.0409 -0.0676 -0.1863
    1DIPC   D3B 4823  22.537   2.738   4.598 -0.3606 -0.0340 -0.1267
    1DIPC   C4B 4824  22.818   2.456   4.363  0.1319  0.1579 -0.2318
    1DIPC   NC3 4825   9.462  26.819   6.865 -0.5482  0.2818  0.0444
    1DIPC   PO4 4826   9.781  26.441   6.645  0.1485  0.1747 -0.2302
    1DIPC   GL1 4827   9.807  26.454   6.207  0.1164 -0.0164 -0.0401
    1DIPC   GL2 4828   9.815  26.124   6.091  0.3185 -0.2479  0.3434
    1DIPC   C1A 4829  10.169  26.525   5.774 -0.2281  0.0587  0.0348
    1DIPC   D2A 4830  10.441  26.383   5.443  0.2535 -0.2287 -0.0442
    1DIPC   D3A 4831  10.704  26.698   5.143  0.0218 -0.4660 -0.1013
    1DIPC   C4A 4832  10.554  27.004   5.020  0.0189 -0.2504 -0.0485
    1DIPC   C1B 4833   9.798  25.694   5.855 -0.3299 -0.1396  0.2004
    1DIPC   D2B 4834   9.957  25.296   5.752 -0.1069 -0.2866  0.0083
    1DIPC   D3B 4835   9.708  25.076   5.378  0.1077 -0.3256 -0.0217
    1DIPC   C4B 4836   9.856  25.222   5.035  0.0765 -0.0655  0.2633
    1DIPC   NC3 4837  22.154   6.384   7.103 -0.1773 -0.0147  0.2906
    1DIPC   PO4 4838  22.274   6.031   6.815  0.1869  0.1439 -0.0296
    1DIPC   GL1 4839  22.053   5.768   6.572  0.3640  0.0228  0.1166
    1DIPC   GL2 4840  21.831   5.816   6.402 -0.1949 -0.1904  0.0561
    1DIPC   C1A 4841  22.242   5.723   6.110  0.0416  0.0665 -0.0327
    1DIPC   D2A 4842  22.307   5.967   5.758  0.4142  0.0059 -0.1738
    1DIPC   D3A 4843  22.396   6.330   5.782  0.0183 -0.3209 -0.0972
    1DIPC   C4A 4844  22.689   6.510   5.486  0.2702 -0.1117 -0.0926
    1DIPC   C1B 4845  21.614   5.889   6.109 -0.3038 -0.2292 -0.0716
    1DIPC   D2B 4846  21.440   5.722   5.793  0.1085  0.0441 -0.0332
    1DIPC   D3B 4847  21.797   5.811   5.616  0.1036  0.4191 -0.2146
    1DIPC   C4B 4848  21.865   6.021   5.256 -0.3426  0.1131 -0.0066
    1DIPC   NC3 4849  10.813   5.613   7.197  0.2300  0.1109 -0.0528
    1DIPC   PO4 4850  10.489   5.461   6.990  0.0733  0.3015 -0.2602
    1DIPC   GL1 4851  10.463   5.282   6.587 -0.1586  0.1487  0.0997
    1DIPC   GL2 4852  10.234   5.144   6.471 -0.0645 -0.1357 -0.0696
    1DIPC   C1A 4853  10.607   5.193   6.150  0.1630  0.3610 -0.2750
    1DIPC   D2A 4854  10.710   5.199   5.719  0.0161  0.0105  0.2578
    1DIPC   D3A 4855  10.913   5.568   5.860  0.1773  0.0851  0.1887
    1DIPC   C4A 4856  11.101   5.757   5.692  0.1797 -0.0808 -0.1149
    1DIPC   C1B 4857  10.208   5.447   6.154 -0.0332 -0.2335  0.2482
    1DIPC   D2B 4858  10.438   5.579   5.864 -0.2389 -0.2109 -0.0288
    1DIPC   D3B 4859  10.273   5.325   5.525 -0.3277  0.0508  0.1722
    1DIPC   C4B 4860   9.713   5.386   5.409 -0.0208  0.1477  0.1318
    1DIPC   NC3 4861  23.116  23.012   6.311 -0.2941  0.2673 -0.1588
    1DIPC   PO4 4862  23.102  22.983   5.918 -0.1375  0.2961 -0.1719
    1DIPC   GL1 4863  23.261  22.721   5.648 -0.1276  0.1930 -0.0474
    1DIPC   GL2 4864  23.239  22.373   5.830 -0.0340 -0.2541 -0.4570
    1DIPC   C1A 4865  23.412  22.534   5.356 -0.0925 -0.3393 -0.0654
    1DIPC   D2A 4866  23.522  22.501   4.956  0.1452 -0.0549 -0.0860
    1DIPC   D3A 4867  23.412  22.972   4.734 -0.0295  0.1697 -0.1433
    1DIPC   C4A 4868  23.063  23.283   4.613  0.2074  0.1232  0.1979
    1DIPC   C1B 4869  22.995  22.202   5.436 -0.1060  0.0826 -0.0890
    1DIPC   D2B 4870  22.955  21.819   5.211  0.2721 -0.1141 -0.1731
    1DIPC   D3B 4871  22.983  22.047   4.883  0.0594  0.0484 -0.1531
    1DIPC   C4B 4872  23.215  21.990   4.587  0.2866 -0.0039  0.2992
    1DIPC   NC3 4873  24.073  22.636   6.230 -0.0789 -0.2763  0.2857
    1DIPC   PO4 4874  24.078  22.973   6.272 -0.2232  0.3645 -0.1622
    1DIPC   GL1 4875  23.923  23.042   5.846 -0.1190  0.1632 -0.1823
    1DIPC   GL2 4876  24.182  22.976   5.704  0.0896  0.0896 -0.1839
    1DIPC   C1A 4877  23.791  23.408   5.657  0.0249  0.1392  0.1666
    1DIPC   D2A 4878  23.452  23.685   5.630 -0.1638 -0.2862 -0.0375
    1DIPC   D3A 4879  23.235  23.300   5.557  0.0026 -0.2410 -0.0298
    1DIPC   C4A 4880  23.178  22.990   5.241  0.1568 -0.3796 -0.1646
    1DIPC   C1B 4881  24.437  22.665   5.650 -0.3637  0.0174  0.1558
    1DIPC   D2B 4882  24.484  22.301   5.475 -0.0066  0.0422 -0.2486
    1DIPC   D3B 4883  24.842  22.227   5.240 -0.1866 -0.2973  0.0861
    1DIPC   C4B 4884  24.948  22.201   4.851 -0.3509 -0.1427 -0.2190
    1DIPC   NC3 4885  28.564  28.540   6.896 -0.0161 -0.2195  0.0338
    1DIPC   PO4 4886  28.843  28.886   6.845 -0.3254  0.0428  0.1876
    1DIPC   GL1 4887  29.166  29.038   6.482 -0.0785  0.1074  0.0116
    1DIPC   GL2 4888  29.527  29.255   6.506  0.2259 -0.2760 -0.3059
    1DIPC   C1A 4889  29.367  29.031   6.024  0.1199 -0.3511  0.1168
    1DIPC   D2A 4890  29.606  28.985   5.726 -0.0535 -0.0444  0.1813
    1DIPC   D3A 4891  29.521  29.367   5.678 -0.1203 -0.0655  0.2093
    1DIPC   C4A 4892  29.070  29.491   5.693  0.2434 -0.0895 -0.1162
    1DIPC   C1B 4893  29.939  29.286   6.529 -0.1597 -0.0422  0.0104
    1DIPC   D2B 4894  30.325  29.074   6.308  0.3543 -0.3579  0.1390
    1DIPC   D3B 4895  30.461  29.434   6.023  0.2299 -0.1584 -0.1504
    1DIPC   C4B 4896  30.950  29.492   5.958  0.0162  0.0482 -0.4551
    1DIPC   NC3 4897   7.440  26.242   6.294  0.0467 -0.3140 -0.0794
    1DIPC   PO4 4898   7.706  26.635   6.256  0.1662 -0.0366 -0.0602
    1DIPC   GL1 4899   7.512  26.476   5.830  0.0373 -0.0595 -0.1426
    1DIPC   GL2 4900   7.215  26.624   5.934  0.0023  0.0313 -0.0197
    1DIPC   C1A 4901   7.364  26.337   5.404  0.1923  0.0639  0.0019
    1DIPC   D2A 4902   7.011  26.341   5.108 -0.0385 -0.3847  0.3275
    1DIPC   D3A 4903   6.890  26.758   4.855 -0.2639 -0.0540  0.1296
    1DIPC   C4A 4904   6.810  26.802   4.384 -0.4451  0.1511 -0.3534
    1DIPC   C1B 4905   6.954  26.354   5.731 -0.2396 -0.3683 -0.0396
    1DIPC   D2B 4906   6.622  26.038   5.856  0.1532  0.1825  0.0961
    1DIPC   D3B 4907   6.959  25.946   5.500  0.3385 -0.1059  0.2543
    1DIPC   C4B 4908   7.346  25.949   5.696  0.1310 -0.1167  0.4318
    1DIPC   NC3 4909  23.630  18.032   6.369  0.0579 -0.0138 -0.0955
    1DIPC   PO4 4910  23.194  17.717   6.251  0.0300  0.0309  0.0720
    1DIPC   GL1 4911  23.215  18.120   6.013 -0.1365 -0.2186 -0.0432
    1DIPC   GL2 4912  23.389  18.382   5.989  0.0220 -0.0521  0.3633
    1DIPC   C1A 4913  22.900  18.218   5.705 -0.0121 -0.0657 -0.0565
    1DIPC   D2A 4914  22.391  18.178   5.696  0.0558 -0.0544 -0.0878
    1DIPC   D3A 4915  22.545  18.632   5.625  0.0647  0.2809  0.3311
    1DIPC   C4A 4916  22.780  18.729   5.232 -0.3425  0.0140 -0.0961
    1DIPC   C1B 4917  23.558  18.645   5.680 -0.1779 -0.0972  0.4052
    1DIPC   D2B 4918  23.562  18.582   5.197 -0.0881 -0.0463  0.1994
    1DIPC   D3B 4919  23.462  18.240   4.889  0.0724 -0.1811  0.3801
    1DIPC   C4B 4920  23.688  17.922   5.151  0.4313  0.0727  0.0050
    1DIPC   NC3 4921  14.352   4.582   7.093  0.0892  0.0423  0.1171
    1DIPC   PO4 4922  13.860   4.577   7.175 -0.0575 -0.3677  0.0278
    1DIPC   GL1 4923  13.905   4.648   6.719  0.0554 -0.0526 -0.4502
    1DIPC   GL2 4924  14.255   4.670   6.592 -0.0573  0.4127  0.0017
    1DIPC   C1A 4925  13.612   4.683   6.380  0.1685 -0.0326  0.0253
    1DIPC   D2A 4926  13.441   4.966   6.044 -0.2930  0.3121 -0.3585
    1DIPC   D3A 4927  13.547   4.784   5.552  0.1993  0.0160  0.0703
    1DIPC   C4A 4928  13.916   4.522   5.460 -0.2035 -0.0899  0.1936
    1DIPC   C1B 4929  14.251   4.609   6.201 -0.0195 -0.0111 -0.2481
    1DIPC   D2B 4930  14.330   4.203   5.918  0.2904 -0.0906 -0.0672
    1DIPC   D3B 4931  13.966   4.097   5.751  0.1886  0.0120  0.0685
    1DIPC   C4B 4932  13.815   3.654   5.556 -0.0855 -0.0592 -0.0017
    1DIPC   NC3 4933   0.060  16.373   5.192  0.1990 -0.1379  0.1661
    1DIPC   PO4 4934  -0.180  16.486   5.596 -0.2391  0.0548  0.2192
    1DIPC   GL1 4935  -0.437  16.419   5.211  0.0278 -0.0530  0.2723
    1DIPC   GL2 4936  -0.780  16.452   5.204  0.0239 -0.1096 -0.0418
    1DIPC   C1A 4937  -0.368  16.476   4.660  0.3238 -0.2097 -0.0673
    1DIPC   D2A 4938  -0.017  16.551   4.530  0.0257  0.0249 -0.1441
    1DIPC   D3A 4939   0.250  16.675   4.189 -0.2362  0.3391 -0.0766
    1DIPC   C4A 4940   0.215  16.461   3.842 -0.0659 -0.1753 -0.2076
    1DIPC   C1B 4941  -0.756  16.202   4.884  0.1759 -0.4738 -0.0715
    1DIPC   D2B 4942  -0.266  16.057   4.808  0.0182  0.0341 -0.0634
    1DIPC   D3B 4943  -0.381  16.121   4.320 -0.2172  0.0427 -0.1861
    1DIPC   C4B 4944  -0.821  16.058   4.197 -0.0092  0.1658 -0.0634
    1DIPC   NC3 4945   9.921   4.397   6.820  0.1171  0.1750  0.0836
    1DIPC   PO4 4946  10.296   4.739   6.792  0.0074  0.0033 -0.2773
    1DIPC   GL1 4947  10.589   4.743   6.502  0.1582  0.2160  0.2297
    1DIPC   GL2 4948  10.681   4.423   6.371 -0.0589 -0.2217  0.2740
    1DIPC   C1A 4949  10.977   5.010   6.439  0.0857 -0.2366 -0.4119
    1DIPC   D2A 4950  11.112   5.094   6.041 -0.2973  0.0877  0.0582
    1DIPC   D3A 4951  11.309   4.744   5.963 -0.0744 -0.1854  0.1118
    1DIPC   C4A 4952  11.237   4.615   5.572  0.0522  0.1764 -0.2117
    1DIPC   C1B 4953  10.713   4.679   6.004 -0.0101  0.0914 -0.1979
    1DIPC   D2B 4954  10.718   4.731   5.582  0.2377 -0.0221 -0.0972
    1DIPC   D3B 4955  10.909   4.799   5.167 -0.0754  0.2598 -0.0184
    1DIPC   C4B 4956  10.772   4.754   4.776  0.0922 -0.2217  0.5325
    1DIPC   NC3 4957  12.117   4.993   7.619 -0.3117 -0.3303  0.0837
    1DIPC   PO4 4958  11.861   4.917   7.322 -0.0756 -0.1594 -0.1639
    1DIPC   GL1 4959  11.782   5.185   6.976 -0.1444  0.0049 -0.0891
    1DIPC   GL2 4960  12.021   5.136   6.828  0.3137  0.3501  0.1743
    1DIPC   C1A 4961  11.646   5.426   6.598  0.3125  0.1672 -0.3450
    1DIPC   D2A 4962  11.373   5.501   6.160  0.1154  0.1642  0.1551
    1DIPC   D3A 4963  11.668   5.561   5.804 -0.4460 -0.1003  0.0009
    1DIPC   C4A 4964  11.559   5.536   5.371  0.0020  0.2573 -0.2473
    1DIPC   C1B 4965  11.908   5.011   6.461  0.1934 -0.1468 -0.2257
    1DIPC   D2B 4966  11.520   5.051   6.236  0.0178 -0.2616 -0.2411
    1DIPC   D3B 4967  11.571   5.077   5.715 -0.0327 -0.1464 -0.0955
    1DIPC   C4B 4968  11.688   4.735   5.438  0.0787  0.0133 -0.0355
    1DIPC   NC3 4969  12.553   2.856   7.340  0.0717 -0.3472 -0.1821
    1DIPC   PO4 4970  12.463   3.223   7.473 -0.0644  0.0335  0.0954
    1DIPC   GL1 4971  12.236   3.205   7.066 -0.2952  0.0176 -0.2385
    1DIPC   GL2 4972  12.026   3.369   6.951  0.0439 -0.1302 -0.0071
    1DIPC   C1A 4973  12.373   3.160   6.668 -0.2968 -0.0563  0.1744
    1DIPC   D2A 4974  12.517   2.974   6.319  0.1781  0.1193 -0.2046
    1DIPC   D3A 4975  12.362   2.778   5.917  0.1576 -0.0263 -0.2349
    1DIPC   C4A 4976  11.932   2.861   5.902  0.2312  0.1246 -0.0755
    1DIPC   C1B 4977  11.963   3.619   6.543 -0.2013  0.2949 -0.0962
    1DIPC   D2B 4978  11.831   3.561   6.092  0.2042 -0.1438 -0.0346
    1DIPC   D3B 4979  12.158   3.252   6.153  0.0722 -0.0289  0.0234
    1DIPC   C4B 4980  12.040   2.824   6.406  0.1484 -0.1270 -0.1406
    1DIPC   NC3 4981  14.461  25.953   6.529 -0.2228 -0.2048 -0.2656
    1DIPC   PO4 4982  14.028  25.741   6.641  0.1068  0.1371 -0.2815
    1DIPC   GL1 4983  14.019  25.748   6.208 -0.4028 -0.1144 -0.0641
    1DIPC   GL2 4984  14.073  25.953   5.991  0.2584  0.3261  0.2746
    1DIPC   C1A 4985  13.849  25.483   5.823 -0.0767  0.0286  0.0418
    1DIPC   D2A 4986  13.876  25.374   5.361  0.2232  0.0533 -0.3761
    1DIPC   D3A 4987  14.208  25.274   5.109 -0.2161  0.2959 -0.0686
    1DIPC   C4A 4988  14.593  25.532   5.194  0.0711 -0.0956  0.1070
    1DIPC   C1B 4989  13.793  26.220   5.707 -0.3049 -0.2557  0.0725
    1DIPC   D2B 4990  13.465  26.252   5.437  0.3736  0.1789  0.1674
    1DIPC   D3B 4991  13.372  25.886   5.173 -0.0063  0.1155  0.1629
    1DIPC   C4B 4992  13.151  25.513   5.196 -0.1897  0.2381  0.0465
    1DIPC   NC3 4993   6.270  12.155   7.604  0.3699 -0.0843 -0.3582
    1DIPC   PO4 4994   6.160  11.934   7.140  0.1317 -0.1576 -0.2030
    1DIPC   GL1 4995   6.524  11.944   6.901  0.0806  0.0865 -0.0069
    1DIPC   GL2 4996   6.490  11.820   6.662 -0.1354  0.0065 -0.1470
    1DIPC   C1A 4997   6.965  11.611   6.755 -0.2581  0.1063  0.0239
    1DIPC   D2A 4998   7.209  11.420   6.652 -0.2857  0.0081 -0.2309
    1DIPC   D3A 4999   6.838  11.133   6.447  0.0289  0.2666  0.2017
    1DIPC   C4A 5000   6.980  10.824   6.178 -0.2066 -0.2612 -0.1286
    1DIPC   C1B 5001   6.475  11.552   6.326 -0.2340  0.2376  0.0274
    1DIPC   D2B 5002   6.223  11.493   6.010 -0.1428 -0.4995  0.1201
    1DIPC   D3B 5003   6.574  11.436   5.799  0.2092 -0.0186 -0.0988
    1DIPC   C4B 5004   6.639  11.315   5.374 -0.0204  0.1537  0.4627
    1DIPC   NC3 5005  12.112   2.719   7.878  0.0747 -0.0881 -0.0358
    1DIPC   PO4 5006  12.290   2.424   7.572 -0.0044 -0.2238 -0.0408
    1DIPC   GL1 5007  12.118   2.537   7.174 -0.3362  0.0297 -0.0511
    1DIPC   GL2 5008  12.307   2.568   6.928  0.0524  0.0529  0.0503
    1DIPC   C1A 5009  11.946   2.131   7.035 -0.0889  0.3566  0.1353
    1DIPC   D2A 5010  11.797   1.885   6.689 -0.3875  0.0895 -0.0372
    1DIPC   D3A 5011  11.808   1.655   6.361 -0.0493  0.0603 -0.3407
    1DIPC   C4A 5012  11.755   1.201   6.294 -0.1183  0.0128 -0.0652
    1DIPC   C1B 5013  12.488   2.426   6.513  0.2687 -0.0721 -0.2337
    1DIPC   D2B 5014  12.528   2.260   6.105  0.3499 -0.0536  0.0926
    1DIPC   D3B 5015  12.994   2.062   6.068  0.5226  0.4222 -0.1686
    1DIPC   C4B 5016  13.031   1.555   6.046 -0.2271  0.3201  0.0194
    1DIPC   NC3 5017   4.745  19.937   5.451  0.0518  0.1438 -0.0245
    1DIPC   PO4 5018   4.348  20.195   5.291  0.3622  0.0370  0.0684
    1DIPC   GL1 5019   4.247  20.388   4.870 -0.0360 -0.5836 -0.0212
    1DIPC   GL2 5020   4.018  20.395   4.801 -0.2165  0.2760  0.0230
    1DIPC   C1A 5021   4.471  20.427   4.491 -0.4002  0.2515  0.0111
    1DIPC   D2A 5022   4.390  20.415   4.024 -0.0602 -0.3068 -0.0479
    1DIPC   D3A 5023   4.308  20.756   3.718 -0.1907  0.1388 -0.0900
    1DIPC   C4A 5024   3.919  20.768   3.582 -0.1668 -0.3539 -0.3618
    1DIPC   C1B 5025   4.007  20.467   4.391 -0.1179  0.1685 -0.2557
    1DIPC   D2B 5026   3.827  20.406   3.914 -0.4797 -0.0887 -0.1246
    1DIPC   D3B 5027   3.771  20.290   3.533 -0.1748  0.2159  0.0844
    1DIPC   C4B 5028   3.984  20.185   3.119 -0.1589 -0.2515 -0.2971
    1DIPC   NC3 5029  25.697  16.864   5.419 -0.1062  0.0934  0.1132
    1DIPC   PO4 5030  25.926  17.196   5.668 -0.0231 -0.1115 -0.0769
    1DIPC   GL1 5031  26.021  17.286   5.333  0.0261  0.2494  0.0841
    1DIPC   GL2 5032  26.401  17.294   5.230 -0.0543  0.2954 -0.2959
    1DIPC   C1A 5033  25.966  17.388   4.915 -0.1941 -0.0224 -0.3374
    1DIPC   D2A 5034  25.720  17.451   4.592 -0.1450 -0.0932  0.0988
    1DIPC   D3A 5035  25.437  17.559   4.948  0.0128 -0.1719  0.3551
    1DIPC   C4A 5036  25.179  17.108   5.068 -0.1585 -0.0373  0.1177
    1DIPC   C1B 5037  26.570  17.375   4.818 -0.0857  0.0668 -0.1802
    1DIPC   D2B 5038  26.792  17.722   4.641  0.2106 -0.0415 -0.1111
    1DIPC   D3B 5039  26.444  17.658   4.431 -0.1979 -0.2131 -0.1909
    1DIPC   C4B 5040  26.184  17.403   4.215  0.2546  0.1675  0.1679
    1DIPC   NC3 5041  26.879  11.691   5.642  0.3976  0.3006  0.2740
    1DIPC   PO4 5042  26.445  11.518   5.840  0.2219  0.0171  0.0924
    1DIPC   GL1 5043  26.409  11.458   5.358  0.1443  0.1077  0.0955
    1DIPC   GL2 5044  26.711  11.481   5.180  0.3988 -0.2217 -0.0094
    1DIPC   C1A 5045  26.161  11.678   5.121 -0.2158 -0.1715  0.0005
    1DIPC   D2A 5046  25.973  11.642   4.715 -0.0547 -0.0671 -0.0726
    1DIPC   D3A 5047  25.948  11.142   4.919 -0.0297 -0.0614 -0.4341
    1DIPC   C4A 5048  26.226  11.045   5.155  0.0410  0.1074 -0.0898
    1DIPC   C1B 5049  26.677  11.217   4.893  0.1300  0.2069  0.0252
    1DIPC   D2B 5050  26.896  10.985   4.677 -0.0421  0.0549  0.0088
    1DIPC   D3B 5051  26.977  11.403   4.515  0.2215 -0.1085 -0.2525
    1DIPC   C4B 5052  26.995  11.670   4.826 -0.0349 -0.2147  0.2560
    1DIPC   NC3 5053   6.882   4.383   7.183  0.1096 -0.0554 -0.0764
    1DIPC   PO4 5054   7.350   4.354   7.112 -0.2173 -0.0636  0.2269
    1DIPC   GL1 5055   7.710   4.443   6.717  0.2163 -0.1118  0.3037
    1DIPC   GL2 5056   8.007   4.282   6.690 -0.2110  0.3800  0.0029
    1DIPC   C1A 5057   7.457   4.625   6.461 -0.0874  0.0970  0.0910
    1DIPC   D2A 5058   7.222   4.896   6.260 -0.3285 -0.1138 -0.1327
    1DIPC   D3A 5059   7.587   4.636   5.959 -0.1105  0.1335  0.4264
    1DIPC   C4A 5060   7.494   4.352   5.625 -0.0736 -0.0396  0.0281
    1DIPC   C1B 5061   8.259   4.251   6.293 -0.1096 -0.1144  0.0205
    1DIPC   D2B 5062   8.462   4.467   5.965 -0.1189 -0.0137  0.2184
    1DIPC   D3B 5063   8.303   4.370   5.580  0.0080  0.0834 -0.0310
    1DIPC   C4B 5064   7.887   4.652   5.530 -0.0856  0.0966  0.0834
    1DIPC   NC3 5065  21.364   1.317   6.689 -0.2266 -0.1440  0.0112
    1DIPC   PO4 5066  21.590   1.599   6.564  0.0388  0.1487 -0.1386
    1DIPC   GL1 5067  21.384   1.778   6.222  0.1458  0.1418  0.0695
    1DIPC   GL2 5068  21.347   2.051   6.208  0.0291  0.3537  0.0484
    1DIPC   C1A 5069  20.927   1.780   6.011  0.1101 -0.0735  0.0535
    1DIPC   D2A 5070  20.759   2.018   5.747 -0.1261 -0.0550  0.0211
    1DIPC   D3A 5071  20.737   1.939   5.296  0.1260 -0.2065 -0.0690
    1DIPC   C4A 5072  20.566   2.306   5.201  0.1726 -0.3268 -0.3597
    1DIPC   C1B 5073  21.288   2.079   5.800  0.0355 -0.1436 -0.1386
    1DIPC   D2B 5074  21.327   1.949   5.397  0.1540  0.1663  0.0509
    1DIPC   D3B 5075  21.053   2.224   5.016 -0.2167  0.1254 -0.1499
    1DIPC   C4B 5076  20.670   2.146   4.763  0.3343  0.0012  0.0171
    1DIPC   NC3 5077  27.798  26.265   6.245  0.1051 -0.0162  0.1336
    1DIPC   PO4 5078  27.480  26.547   6.056 -0.0434 -0.2578 -0.0084
    1DIPC   GL1 5079  27.806  26.772   5.760 -0.0778 -0.4459 -0.1290
    1DIPC   GL2 5080  28.013  27.162   5.802 -0.0124  0.2084 -0.0185
    1DIPC   C1A 5081  28.107  26.648   5.491  0.3484  0.0313 -0.0020
    1DIPC   D2A 5082  28.158  26.517   5.164 -0.1083 -0.2079 -0.1110
    1DIPC   D3A 5083  28.591  26.298   5.117  0.1462  0.3579  0.1232
    1DIPC   C4A 5084  28.680  26.189   4.659  0.1903 -0.0110  0.0683
    1DIPC   C1B 5085  27.888  27.148   5.433 -0.1942 -0.2177  0.2568
    1DIPC   D2B 5086  27.848  26.921   5.103  0.0981  0.0098 -0.1697
    1DIPC   D3B 5087  28.110  27.233   4.901 -0.5038  0.0390 -0.2240
    1DIPC   C4B 5088  27.877  27.514   4.661 -0.3955  0.0443  0.2121
    1DIPC   NC3 5089   5.729  19.272   5.075  0.1891 -0.0485  0.0989
    1DIPC   PO4 5090   5.715  19.707   5.149 -0.2173  0.0373 -0.1277
    1DIPC   GL1 5091   5.989  19.822   4.907  0.1032 -0.0183 -0.0387
    1DIPC   GL2 5092   5.902  19.546   4.709 -0.0563  0.0718 -0.0761
    1DIPC   C1A 5093   6.095  19.936   4.500 -0.0700 -0.0124  0.0506
    1DIPC   D2A 5094   6.348  19.686   4.282 -0.1695  0.2070 -0.1198
    1DIPC   D3A 5095   6.589  19.361   4.407  0.1251  0.3307  0.0281
    1DIPC   C4A 5096   6.907  19.390   4.200  0.0383 -0.4196 -0.0907
    1DIPC   C1B 5097   5.980  19.348   4.337  0.0867 -0.1164  0.4116
    1DIPC   D2B 5098   5.909  19.005   4.092  0.1877 -0.0399  0.1710
    1DIPC   D3B 5099   5.877  19.363   3.834 -0.1169 -0.1184 -0.2585
    1DIPC   C4B 5100   5.789  19.630   3.548  0.1010 -0.2644  0.0981
    1DIPC   NC3 5101  21.387  20.405   5.933  0.0616  0.1130 -0.0992
    1DIPC   PO4 5102  21.531  20.722   6.004  0.4235 -0.0459  0.2418
    1DIPC   GL1 5103  21.226  20.917   5.703 -0.0907  0.0940 -0.2446
    1DIPC   GL2 5104  21.118  20.754   5.471  0.0959  0.3573  0.2226
    1DIPC   C1A 5105  21.044  21.284   5.567 -0.1361  0.0048  0.4166
    1DIPC   D2A 5106  20.887  21.407   5.084  0.0424 -0.0650 -0.2091
    1DIPC   D3A 5107  20.783  21.266   4.754  0.0608 -0.3408  0.1872
    1DIPC   C4A 5108  20.417  21.190   4.574  0.1266 -0.1882  0.1502
    1DIPC   C1B 5109  21.083  20.945   5.097  0.1243  0.0918  0.0810
    1DIPC   D2B 5110  21.257  20.891   4.628  0.0954 -0.0541 -0.1022
    1DIPC   D3B 5111  20.980  20.914   4.282  0.2817  0.2065  0.0919
    1DIPC   C4B 5112  20.605  20.649   4.251  0.2909 -0.0331 -0.1362
    1DIPC   NC3 5113  27.007   3.497   6.332  0.3438  0.2026  0.2317
    1DIPC   PO4 5114  26.689   3.888   6.205 -0.1234  0.0322  0.0618
    1DIPC   GL1 5115  26.851   3.588   5.833  0.1093 -0.0969 -0.0582
    1DIPC   GL2 5116  26.711   3.737   5.714 -0.1127 -0.0011 -0.1327
    1DIPC   C1A 5117  27.067   3.441   5.435  0.1038  0.0899 -0.2622
    1DIPC   D2A 5118  26.972   3.203   4.998  0.3485  0.0132  0.0991
    1DIPC   D3A 5119  27.460   3.208   5.031 -0.0335 -0.2934 -0.3407
    1DIPC   C4A 5120  27.631   3.001   4.625  0.1157 -0.3778  0.0586
    1DIPC   C1B 5121  26.876   3.892   5.305  0.1040 -0.1405 -0.0740
    1DIPC   D2B 5122  26.883   4.049   4.930 -0.0016 -0.3741 -0.3445
    1DIPC   D3B 5123  26.810   4.434   5.174 -0.0736 -0.1504 -0.0299
    1DIPC   C4B 5124  27.147   4.311   5.442 -0.5784 -0.2002  0.1577
    1DIPC   NC3 5125   1.632  14.587   5.564 -0.0739  0.0773  0.0989
    1DIPC   PO4 5126   2.174  14.467   5.528  0.1109  0.2609 -0.2477
    1DIPC   GL1 5127   2.403  14.445   5.263  0.1416 -0.1167 -0.0805
    1DIPC   GL2 5128   2.721  14.451   5.435 -0.0910 -0.2280 -0.0204
    1DIPC   C1A 5129   2.673  14.367   4.951 -0.0278  0.2569  0.0911
    1DIPC   D2A 5130   2.735  14.422   4.638 -0.3450  0.1773  0.0442
    1DIPC   D3A 5131   3.117  14.131   4.447  0.0341 -0.0392  0.1870
    1DIPC   C4A 5132   3.334  14.291   4.068  0.0248  0.0426  0.1169
    1DIPC   C1B 5133   3.072  14.153   5.045 -0.0522 -0.4893 -0.4383
    1DIPC   D2B 5134   3.486  14.128   4.815  0.1594 -0.1397 -0.1013
    1DIPC   D3B 5135   3.688  14.333   4.613  0.2151  0.3247 -0.0377
    1DIPC   C4B 5136   4.139  14.168   4.599  0.1256 -0.3654  0.0571
    1DIPC   NC3 5137   9.615   8.358   7.470  0.0607  0.1933 -0.1548
    1DIPC   PO4 5138   9.207   8.609   7.369  0.2004 -0.3300  0.0018
    1DIPC   GL1 5139   9.018   8.367   7.047  0.1547 -0.1524  0.2255
    1DIPC   GL2 5140   8.728   8.194   6.973 -0.0055 -0.1277 -0.1298
    1DIPC   C1A 5141   9.191   8.201   6.698 -0.4570 -0.1546  0.2599
    1DIPC   D2A 5142   9.137   8.153   6.259 -0.0276  0.0780  0.2264
    1DIPC   D3A 5143   9.530   8.280   6.378 -0.2569 -0.2512 -0.2809
    1DIPC   C4A 5144   9.787   8.552   6.593 -0.0434  0.1229  0.0371
    1DIPC   C1B 5145   8.803   8.402   6.530 -0.0076 -0.2502  0.2130
    1DIPC   D2B 5146   8.787   8.595   6.142  0.1760  0.2889 -0.0898
    1DIPC   D3B 5147   9.308   8.586   6.096 -0.2469 -0.0397 -0.0123
    1DIPC   C4B 5148   9.670   8.864   6.196 -0.1820  0.1417  0.2645
    1DIPC   NC3 5149  12.390  26.600   6.848  0.1227  0.0489  0.1774
    1DIPC   PO4 5150  12.051  26.832   6.917 -0.2470 -0.1191  0.1032
    1DIPC   GL1 5151  12.029  26.822   6.516 -0.0640  0.1730  0.1487
    1DIPC   GL2 5152  11.850  26.556   6.370 -0.1138  0.2036 -0.1690
    1DIPC   C1A 5153  12.116  27.096   6.275 -0.0578  0.1867 -0.1212
    1DIPC   D2A 5154  12.233  27.243   5.883  0.1419 -0.0059  0.3615
    1DIPC   D3A 5155  12.126  27.646   5.816 -0.2352  0.3037  0.1126
    1DIPC   C4A 5156  12.364  28.011   5.827  0.1017  0.4201  0.0459
    1DIPC   C1B 5157  11.630  26.768   6.065 -0.1101  0.1826  0.0358
    1DIPC   D2B 5158  11.623  27.117   5.874 -0.4212 -0.0374 -0.2477
    1DIPC   D3B 5159  11.509  27.011   5.457  0.1753 -0.2597 -0.1202
    1DIPC   C4B 5160  11.787  26.727   5.182  0.1847 -0.1541  0.1670
    1DIPC   NC3 5161  13.997   2.389   7.782 -0.0850  0.0570 -0.1137
    1DIPC   PO4 5162  13.895   2.381   7.295 -0.0741 -0.4691  0.0828
    1DIPC   GL1 5163  13.848   2.116   6.973  0.2432 -0.0801 -0.0801
    1DIPC   GL2 5164  13.987   2.273   6.816  0.2510 -0.0686  0.2567
    1DIPC   C1A 5165  13.960   1.813   6.652  0.2777  0.1129 -0.0077
    1DIPC   D2A 5166  14.012   1.567   6.367  0.0295 -0.0885 -0.1626
    1DIPC   D3A 5167  14.163   1.993   6.229  0.0584 -0.4608  0.0839
    1DIPC   C4A 5168  14.268   2.082   5.832 -0.0072 -0.1179  0.0628
    1DIPC   C1B 5169  13.742   2.547   6.683  0.2984 -0.1213  0.2032
    1DIPC   D2B 5170  13.590   2.950   6.730  0.1600 -0.0521  0.2070
    1DIPC   D3B 5171  13.212   2.731   6.538  0.3307 -0.4063 -0.1186
    1DIPC   C4B 5172  12.759   2.777   6.750 -0.2434  0.1428  0.2751
    1DIPC   NC3 5173  11.208  22.518   6.631  0.3686  0.0170 -0.0658
    1DIPC   PO4 5174  10.950  22.598   6.223  0.0059 -0.0801  0.0525
    1DIPC   GL1 5175  11.204  22.533   5.771  0.0922 -0.2331 -0.2525
    1DIPC   GL2 5176  11.482  22.708   5.762 -0.1047  0.0041 -0.0980
    1DIPC   C1A 5177  11.148  22.537   5.340  0.2780  0.1751  0.0058
    1DIPC   D2A 5178  10.874  22.642   5.026  0.4199 -0.3417  0.0499
    1DIPC   D3A 5179  11.211  22.852   4.818 -0.0000 -0.0053 -0.0915
    1DIPC   C4A 5180  11.485  23.025   4.987  0.3750 -0.1573  0.1630
    1DIPC   C1B 5181  11.327  22.989   5.524  0.2295  0.0772 -0.1348
    1DIPC   D2B 5182  11.495  23.392   5.389  0.1160 -0.0031  0.1700
    1DIPC   D3B 5183  11.942  23.645   5.220 -0.1175 -0.1485 -0.1068
    1DIPC   C4B 5184  12.119  23.504   4.889  0.2590 -0.1957 -0.4305
    1DIPC   NC3 5185  27.154   9.761   6.060  0.3000  0.0078  0.0271
    1DIPC   PO4 5186  27.378   9.942   5.711 -0.1237 -0.1416  0.3155
    1DIPC   GL1 5187  27.159   9.918   5.309  0.0549 -0.1472 -0.2677
    1DIPC   GL2 5188  27.115   9.685   5.178 -0.0545 -0.1366 -0.2114
    1DIPC   C1A 5189  27.030  10.224   5.086 -0.0605  0.0167 -0.3539
    1DIPC   D2A 5190  27.003  10.248   4.603 -0.0564  0.0687 -0.1310
    1DIPC   D3A 5191  26.880  10.588   4.361 -0.0546 -0.0164  0.1274
    1DIPC   C4A 5192  27.127  10.638   4.090  0.2194  0.1313 -0.0245
    1DIPC   C1B 5193  27.071   9.805   4.828  0.0777  0.1132 -0.0573
    1DIPC   D2B 5194  26.864   9.670   4.448 -0.3578 -0.0799 -0.0178
    1DIPC   D3B 5195  26.557   9.318   4.480  0.1201 -0.3560  0.2115
    1DIPC   C4B 5196  26.587   9.031   4.059 -0.0320  0.2588  0.4179
    1DIPC   NC3 5197   0.580   3.780   6.506 -0.1612 -0.0892 -0.0553
    1DIPC   PO4 5198   0.114   3.780   6.419  0.3443  0.0543 -0.1262
    1DIPC   GL1 5199   0.105   3.787   5.986  0.0651  0.0413  0.0778
    1DIPC   GL2 5200  -0.040   3.441   5.842 -0.0013  0.0978  0.1091
    1DIPC   C1A 5201   0.341   4.023   5.724  0.3713 -0.0883 -0.0695
    1DIPC   D2A 5202   0.474   3.886   5.227 -0.2042  0.0030 -0.0512
    1DIPC   D3A 5203   0.819   4.057   5.499  0.1472  0.2600  0.0799
    1DIPC   C4A 5204   1.053   4.321   5.267  0.0037 -0.0179  0.1520
    1DIPC   C1B 5205  -0.009   3.246   5.396  0.0957  0.1612 -0.2070
    1DIPC   D2B 5206   0.223   3.448   5.090  0.1984  0.1676 -0.4356
    1DIPC   D3B 5207   0.055   3.827   4.764 -0.0987  0.1874 -0.0242
    1DIPC   C4B 5208   0.110   4.285   4.745  0.0919 -0.0041 -0.1624
    1DIPC   NC3 5209  18.998   0.752   7.062  0.0710  0.0363  0.2124
    1DIPC   PO4 5210  18.666   0.751   6.818  0.1483  0.0194  0.2261
    1DIPC   GL1 5211  18.750   0.830   6.297  0.1479  0.1865  0.2043
    1DIPC   GL2 5212  18.793   0.463   6.222 -0.0049 -0.0580  0.2229
    1DIPC   C1A 5213  18.624   0.784   5.877  0.0960  0.1030 -0.3542
    1DIPC   D2A 5214  18.742   0.595   5.462  0.1422 -0.1009  0.0073
    1DIPC   D3A 5215  19.147   0.808   5.348  0.2205  0.0908  0.2137
    1DIPC   C4A 5216  19.534   0.731   5.681  0.1214 -0.1486 -0.1179
    1DIPC   C1B 5217  19.065   0.441   5.833 -0.0504 -0.0055 -0.0998
    1DIPC   D2B 5218  19.378   0.189   5.710  0.0801 -0.1843 -0.4516
    1DIPC   D3B 5219  19.534   0.315   5.360  0.1688  0.0243  0.2897
    1DIPC   C4B 5220  19.614   0.116   5.001  0.0571 -0.1135 -0.1048
    1DIPC   NC3 5221   6.069  21.269   6.256 -0.0375  0.1579  0.0495
    1DIPC   PO4 5222   6.187  21.064   6.009 -0.0693 -0.0752  0.1474
    1DIPC   GL1 5223   6.138  21.009   5.571 -0.2658 -0.0073  0.0304
    1DIPC   GL2 5224   6.469  20.926   5.517 -0.0991 -0.1937  0.5674
    1DIPC   C1A 5225   5.870  21.063   5.245  0.3130 -0.3807  0.1575
    1DIPC   D2A 5226   5.565  21.079   4.978 -0.0773  0.0642  0.0533
    1DIPC   D3A 5227   5.745  21.076   4.580  0.2459 -0.1084  0.0687
    1DIPC   C4A 5228   6.138  21.146   4.710 -0.1481 -0.1746  0.3048
    1DIPC   C1B 5229   6.433  20.940   5.033  0.0655  0.1455 -0.0114
    1DIPC   D2B 5230   6.474  20.771   4.642  0.2585 -0.2045 -0.1637
    1DIPC   D3B 5231   6.671  20.868   4.276 -0.1678 -0.2924 -0.1612
    1DIPC   C4B 5232   7.135  21.098   4.225  0.1706  0.0845  0.3514
    1DIPC   NC3 5233   2.430   4.214   6.810  0.0361  0.0896 -0.0859
    1DIPC   PO4 5234   2.854   4.210   6.616  0.1682 -0.0855  0.1055
    1DIPC   GL1 5235   2.819   4.178   6.110 -0.2406  0.0623 -0.0528
    1DIPC   GL2 5236   2.986   3.963   5.949  0.1079 -0.1500 -0.0360
    1DIPC   C1A 5237   2.558   4.226   5.744 -0.3347 -0.1709 -0.1527
    1DIPC   D2A 5238   2.432   4.165   5.243 -0.0846  0.1336 -0.0499
    1DIPC   D3A 5239   2.198   3.881   4.981 -0.2508 -0.2031 -0.2262
    1DIPC   C4A 5240   2.230   3.708   4.633  0.0403  0.4620 -0.1978
    1DIPC   C1B 5241   2.747   3.851   5.443 -0.0360 -0.2169  0.0001
    1DIPC   D2B 5242   3.039   3.584   5.182 -0.2911  0.0068  0.2382
    1DIPC   D3B 5243   3.150   3.242   4.999  0.0617 -0.1720 -0.2703
    1DIPC   C4B 5244   2.878   2.930   4.918 -0.0794  0.0883  0.1681
    1DIPC   NC3 5245  14.525  26.673   6.840  0.1767  0.0509 -0.0163
    1DIPC   PO4 5246  14.282  26.423   6.575 -0.0941  0.3379 -0.0303
    1DIPC   GL1 5247  14.377  26.450   6.059 -0.4312 -0.0129 -0.0938
    1DIPC   GL2 5248  14.581  26.675   5.830 -0.0180 -0.2225  0.0821
    1DIPC   C1A 5249  14.323  26.217   5.630 -0.2261  0.4558  0.2341
    1DIPC   D2A 5250  14.409  26.051   5.246  0.0567 -0.0082 -0.1478
    1DIPC   D3A 5251  14.743  26.081   5.003 -0.1021 -0.2988  0.1223
    1DIPC   C4A 5252  14.674  26.240   4.596 -0.2503  0.3946 -0.3370
    1DIPC   C1B 5253  14.448  26.694   5.352  0.4427  0.1921  0.0286
    1DIPC   D2B 5254  14.077  26.838   5.031  0.0960  0.1869  0.0686
    1DIPC   D3B 5255  14.475  27.087   5.006  0.0669  0.1070  0.1295
    1DIPC   C4B 5256  14.851  27.206   4.858 -0.0662  0.0921 -0.0545
    1DIPC   NC3 5257  11.103  27.357   6.573 -0.1785  0.1274  0.0650
    1DIPC   PO4 5258  10.747  27.656   6.681  0.2951  0.2969  0.0750
    1DIPC   GL1 5259  10.754  27.603   6.248  0.2451 -0.1447 -0.2563
    1DIPC   GL2 5260  10.913  27.967   6.088 -0.0006 -0.3782 -0.0397
    1DIPC   C1A 5261  10.880  27.610   5.819 -0.0640  0.3644  0.3700
    1DIPC   D2A 5262  11.209  27.391   5.498  0.0894 -0.0633  0.3316
    1DIPC   D3A 5263  11.671  27.508   5.532 -0.2233 -0.2112 -0.4009
    1DIPC   C4A 5264  11.836  27.682   5.115 -0.1572  0.0394 -0.0948
    1DIPC   C1B 5265  10.829  28.118   5.688 -0.0796 -0.0500  0.3102
    1DIPC   D2B 5266  10.981  28.300   5.348  0.2254 -0.0260 -0.0153
    1DIPC   D3B 5267  11.129  28.288   4.982  0.1705  0.0956  0.1627
    1DIPC   C4B 5268  11.487  28.512   4.929 -0.0190 -0.0578  0.3249
    1DIPC   NC3 5269   0.791   6.111   6.175 -0.1038  0.1644  0.1017
    1DIPC   PO4 5270   1.211   6.154   6.460 -0.1531  0.0899 -0.3144
    1DIPC   GL1 5271   1.282   6.061   6.018  0.0631  0.2107  0.1409
    1DIPC   GL2 5272   1.390   6.420   5.931  0.2981 -0.0509  0.1963
    1DIPC   C1A 5273   1.212   5.879   5.627 -0.2647  0.1094  0.2272
    1DIPC   D2A 5274   0.901   6.128   5.385  0.1268 -0.3424 -0.1434
    1DIPC   D3A 5275   0.946   6.301   5.759  0.1970  0.0405  0.0466
    1DIPC   C4A 5276   0.751   6.731   5.817 -0.0520 -0.0481  0.2282
    1DIPC   C1B 5277   1.477   6.336   5.459 -0.1212  0.2594 -0.0724
    1DIPC   D2B 5278   1.538   5.974   5.237 -0.1325 -0.0565 -0.0056
    1DIPC   D3B 5279   1.302   5.832   5.012 -0.0847 -0.0796 -0.0449
    1DIPC   C4B 5280   1.336   5.484   4.831  0.0172 -0.3790  0.0747
    1DIPC   NC3 5281  24.625   6.669   6.649  0.0632  0.0143  0.0158
    1DIPC   PO4 5282  24.693   7.122   6.593 -0.0760 -0.2336  0.1584
    1DIPC   GL1 5283  24.401   6.984   6.370  0.1151  0.0365 -0.0817
    1DIPC   GL2 5284  24.124   7.129   6.184 -0.0314 -0.0890  0.1249
    1DIPC   C1A 5285  24.295   6.704   6.070 -0.0827  0.1148 -0.0627
    1DIPC   D2A 5286  23.812   6.707   5.928  0.3380 -0.1036  0.0249
    1DIPC   D3A 5287  23.651   6.781   5.556  0.0079 -0.0174 -0.0335
    1DIPC   C4A 5288  23.667   6.414   5.215  0.0488  0.1452 -0.1879
    1DIPC   C1B 5289  23.926   7.152   5.855  0.1870 -0.0060  0.1019
    1DIPC   D2B 5290  23.973   7.118   5.381 -0.0103  0.0331 -0.0341
    1DIPC   D3B 5291  24.210   7.214   5.023  0.2004  0.1572  0.2176
    1DIPC   C4B 5292  24.585   7.384   5.140  0.1136 -0.1954 -0.1601
    1DIPC   NC3 5293   2.740  25.521   5.988  0.0364  0.0501  0.0681
    1DIPC   PO4 5294   2.691  25.151   5.749 -0.0253 -0.0817 -0.1802
    1DIPC   GL1 5295   2.780  25.465   5.452 -0.0658  0.0085 -0.0646
    1DIPC   GL2 5296   2.638  25.795   5.555 -0.2322  0.1776 -0.2850
    1DIPC   C1A 5297   2.834  25.693   5.066  0.0245 -0.1577  0.0686
    1DIPC   D2A 5298   3.176  25.841   4.755 -0.4404 -0.0870  0.2525
    1DIPC   D3A 5299   3.412  25.592   4.873  0.0761  0.1703 -0.1328
    1DIPC   C4A 5300   3.286  25.670   5.381  0.4327  0.1354 -0.3369
    1DIPC   C1B 5301   2.877  26.040   5.414 -0.1822  0.1666 -0.2640
    1DIPC   D2B 5302   2.886  26.198   5.026 -0.4048 -0.1205  0.1322
    1DIPC   D3B 5303   2.950  26.628   5.225  0.0288  0.1772 -0.3962
    1DIPC   C4B 5304   2.989  26.466   5.670  0.2532 -0.0169  0.1105
    1DIPC   NC3 5305  27.733  28.271   6.583  0.0577  0.1618 -0.1323
    1DIPC   PO4 5306  27.298  28.205   6.510 -0.1939 -0.3865 -0.0970
    1DIPC   GL1 5307  27.540  28.233   6.032  0.1840  0.1006 -0.1022
    1DIPC   GL2 5308  27.456  27.986   5.823  0.2146  0.2517  0.0366
    1DIPC   C1A 5309  27.924  28.088   5.713 -0.1063  0.0945  0.1061
    1DIPC   D2A 5310  28.165  27.837   5.460  0.0426  0.4219 -0.5293
    1DIPC   D3A 5311  28.551  28.018   5.730  0.0135  0.0434 -0.2886
    1DIPC   C4A 5312  28.583  28.165   6.122  0.1463 -0.1851  0.0706
    1DIPC   C1B 5313  27.481  28.062   5.355 -0.0138 -0.1061 -0.0515
    1DIPC   D2B 5314  27.840  28.221   5.088 -0.1855  0.1482 -0.0230
    1DIPC   D3B 5315  27.633  27.955   4.778  0.1304 -0.0169 -0.1258
    1DIPC   C4B 5316  27.622  27.932   4.307  0.5243  0.1546 -0.5972
    1DIPC   NC3 5317   2.352  15.039   5.928  0.1624 -0.2431 -0.1998
    1DIPC   PO4 5318   2.804  15.222   5.838  0.1956 -0.0703 -0.1856
    1DIPC   GL1 5319   3.132  15.146   5.604 -0.0104  0.0579 -0.1566
    1DIPC   GL2 5320   3.219  15.365   5.448 -0.2175  0.0692 -0.1126
    1DIPC   C1A 5321   3.088  14.790   5.344  0.2071 -0.0724  0.1966
    1DIPC   D2A 5322   3.124  14.708   4.889 -0.1539  0.0021 -0.1560
    1DIPC   D3A 5323   3.436  14.472   5.132  0.3252 -0.1567 -0.1265
    1DIPC   C4A 5324   3.346  14.463   5.570 -0.0641  0.4004 -0.4318
    1DIPC   C1B 5325   2.859  15.186   5.125 -0.2779 -0.0347  0.1511
    1DIPC   D2B 5326   2.581  14.862   4.937  0.0303 -0.1127 -0.4879
    1DIPC   D3B 5327   2.806  14.928   4.516 -0.0139  0.1986  0.0328
    1DIPC   C4B 5328   3.261  14.838   4.355 -0.0422 -0.1176  0.0232
    1DIPC   NC3 5329  25.354   8.484   6.389  0.0436 -0.3213  0.0641
    1DIPC   PO4 5330  25.686   8.242   6.104 -0.1858 -0.2002  0.0306
    1DIPC   GL1 5331  25.876   8.316   5.634 -0.2078 -0.0120  0.0728
    1DIPC   GL2 5332  25.937   8.671   5.619 -0.0842 -0.2294 -0.1930
    1DIPC   C1A 5333  25.800   8.227   5.152 -0.0889 -0.0649  0.4049
    1DIPC   D2A 5334  25.710   8.487   4.734  0.1906  0.0074  0.2097
    1DIPC   D3A 5335  25.755   8.522   4.201 -0.0535 -0.0523 -0.0088
    1DIPC   C4A 5336  25.706   8.127   3.884 -0.0424  0.0612  0.1292
    1DIPC   C1B 5337  26.291   8.511   5.323 -0.0984  0.0748  0.1298
    1DIPC   D2B 5338  26.643   8.472   5.143 -0.2008 -0.1692  0.2507
    1DIPC   D3B 5339  26.753   8.510   5.524 -0.3531  0.0404  0.2150
    1DIPC   C4B 5340  26.599   8.970   5.593  0.0671  0.3980  0.0786
    1DIPC   NC3 5341  15.406  26.737   6.590 -0.5352 -0.2006  0.0833
    1DIPC   PO4 5342  15.195  26.421   6.716 -0.0585 -0.1420  0.0394
    1DIPC   GL1 5343  15.250  26.424   6.224  0.2152  0.2386  0.1587
    1DIPC   GL2 5344  15.085  26.738   6.128  0.1515  0.1310  0.2278
    1DIPC   C1A 5345  15.331  26.229   5.811  0.1274  0.0846 -0.0003
    1DIPC   D2A 5346  15.493  25.997   5.469  0.0361 -0.1056 -0.1677
    1DIPC   D3A 5347  15.407  26.435   5.255  0.1186  0.1936 -0.0650
    1DIPC   C4A 5348  15.761  26.717   5.185 -0.0374  0.2832 -0.4638
    1DIPC   C1B 5349  15.159  26.674   5.694  0.0162  0.1307 -0.0494
    1DIPC   D2B 5350  14.836  26.397   5.516 -0.2244  0.0092  0.2504
    1DIPC   D3B 5351  14.835  26.565   5.075  0.1305 -0.5677 -0.2476
    1DIPC   C4B 5352  15.187  26.890   5.058 -0.0359 -0.0227 -0.2712
    1DIPC   NC3 5353  29.444  24.323   6.166 -0.0547  0.1279 -0.4250
    1DIPC   PO4 5354  29.612  24.025   5.955 -0.0669 -0.2465 -0.0248
    1DIPC   GL1 5355  29.631  24.011   5.529  0.1490  0.0763  0.1546
    1DIPC   GL2 5356  29.853  24.267   5.421  0.1400 -0.0623  0.0380
    1DIPC   C1A 5357  29.553  23.923   5.078 -0.1001  0.0928 -0.1673
    1DIPC   D2A 5358  29.896  24.081   4.845  0.3312  0.1508 -0.2257
    1DIPC   D3A 5359  29.682  24.513   4.818  0.1128 -0.0284 -0.0166
    1DIPC   C4A 5360  29.402  24.823   4.607  0.2011 -0.0052  0.2275
    1DIPC   C1B 5361  29.500  24.504   5.254  0.1370 -0.3634 -0.0694
    1DIPC   D2B 5362  29.237  24.657   5.010 -0.0943  0.2518  0.1252
    1DIPC   D3B 5363  29.209  24.278   4.720 -0.1128 -0.4545 -0.2274
    1DIPC   C4B 5364  29.337  23.959   4.419  0.0778  0.0580  0.1267
    1DIPC   NC3 5365   2.196  21.347   5.592 -0.1016  0.4542  0.1788
    1DIPC   PO4 5366   2.441  21.626   5.463  0.3710 -0.1502  0.5429
    1DIPC   GL1 5367   2.421  21.470   5.068 -0.2670 -0.0505 -0.0435
    1DIPC   GL2 5368   2.554  21.677   4.818 -0.0573  0.1506 -0.0580
    1DIPC   C1A 5369   2.203  21.137   4.819 -0.1688 -0.2143  0.4384
    1DIPC   D2A 5370   2.075  21.073   4.345 -0.2882  0.0793 -0.1917
    1DIPC   D3A 5371   1.669  20.962   4.130  0.0564 -0.0192  0.2199
    1DIPC   C4A 5372   1.376  21.329   3.853  0.1213  0.2988 -0.1035
    1DIPC   C1B 5373   2.197  21.583   4.581 -0.1834  0.2148 -0.0547
    1DIPC   D2B 5374   1.891  21.778   4.241 -0.0887 -0.1511  0.1160
    1DIPC   D3B 5375   1.839  21.448   3.985  0.4355  0.3628  0.1364
    1DIPC   C4B 5376   2.122  21.157   3.793  0.1064  0.2724 -0.1185
    1DIPC   NC3 5377   2.453  18.978   5.580  0.0128  0.0473  0.1409
    1DIPC   PO4 5378   2.320  19.128   5.128 -0.3687  0.1614  0.2040
    1DIPC   GL1 5379   2.173  18.780   5.017 -0.0994 -0.1397 -0.1517
    1DIPC   GL2 5380   1.875  18.952   4.995  0.2470  0.1029  0.0627
    1DIPC   C1A 5381   2.137  18.599   4.579  0.4450 -0.1343  0.1855
    1DIPC   D2A 5382   2.029  18.451   4.192  0.0276  0.2443 -0.3213
    1DIPC   D3A 5383   1.637  18.481   4.017 -0.0473  0.1105  0.0248
    1DIPC   C4A 5384   1.766  18.439   3.491 -0.0343  0.1213 -0.1636
    1DIPC   C1B 5385   1.447  18.854   4.809 -0.0826 -0.2019  0.0609
    1DIPC   D2B 5386   1.064  19.130   4.734  0.1958 -0.0021 -0.1490
    1DIPC   D3B 5387   1.020  19.014   4.362 -0.0812 -0.3138 -0.1048
    1DIPC   C4B 5388   1.235  18.735   4.265 -0.0021  0.0147 -0.0607
    1DIPC   NC3 5389   8.004  21.731   6.116  0.2089  0.1744  0.1327
    1DIPC   PO4 5390   8.206  21.306   5.970  0.4301 -0.1275  0.0023
    1DIPC   GL1 5391   8.033  21.401   5.613  0.1416  0.1898  0.0762
    1DIPC   GL2 5392   7.966  21.678   5.626  0.0412 -0.0600 -0.1622
    1DIPC   C1A 5393   8.164  21.181   5.262 -0.0049  0.1330  0.0423
    1DIPC   D2A 5394   8.632  20.955   5.276 -0.1914  0.1071  0.0364
    1DIPC   D3A 5395   8.996  20.722   5.411 -0.0882 -0.0605  0.2200
    1DIPC   C4A 5396   9.371  20.904   5.451  0.0452 -0.0794 -0.3732
    1DIPC   C1B 5397   7.947  21.876   5.170  0.3129  0.2284 -0.0617
    1DIPC   D2B 5398   8.025  22.057   4.748 -0.0977 -0.4755  0.1266
    1DIPC   D3B 5399   8.426  22.173   4.817  0.0271  0.0537 -0.0223
    1DIPC   C4B 5400   8.612  22.477   4.640 -0.1588 -0.0027  0.0033
    1DIPC   NC3 5401   4.934  17.640   5.802 -0.1824 -0.0065 -0.2795
    1DIPC   PO4 5402   5.208  17.796   5.578 -0.0730  0.0291 -0.0018
    1DIPC   GL1 5403   5.146  17.565   5.343 -0.1227  0.0026  0.1438
    1DIPC   GL2 5404   4.896  17.339   5.405 -0.0458 -0.4751  0.1623
    1DIPC   C1A 5405   5.195  17.525   4.981 -0.3309 -0.0149 -0.2548
    1DIPC   D2A 5406   5.214  17.581   4.586 -0.1077  0.0303 -0.0585
    1DIPC   D3A 5407   5.413  17.307   4.274  0.2628  0.0200 -0.1750
    1DIPC   C4A 5408   5.141  16.904   4.426  0.1605 -0.3746  0.2752
    1DIPC   C1B 5409   4.759  17.303   5.022  0.2056 -0.1129 -0.0455
    1DIPC   D2B 5410   4.854  17.230   4.683  0.1047 -0.0263 -0.2944
    1DIPC   D3B 5411   4.880  17.241   4.218 -0.0479 -0.1507 -0.2036
    1DIPC   C4B 5412   4.822  17.200   3.699 -0.3134 -0.0214  0.1527
    1DIPC   NC3 5413   0.237   7.336   6.192  0.0795 -0.0442 -0.3773
    1DIPC   PO4 5414  -0.064   7.798   6.051  0.0798  0.1051 -0.0283
    1DIPC   GL1 5415   0.039   7.612   5.658  0.2363  0.1739  0.2144
    1DIPC   GL2 5416  -0.050   7.267   5.638 -0.2740 -0.1451  0.1616
    1DIPC   C1A 5417   0.141   7.438   5.207 -0.0902  0.1698  0.1748
    1DIPC   D2A 5418   0.329   7.554   4.825  0.0262 -0.2560 -0.0812
    1DIPC   D3A 5419   0.082   7.886   4.850  0.0766  0.4955 -0.1755
    1DIPC   C4A 5420  -0.003   8.134   4.443 -0.0215  0.0104  0.0518
    1DIPC   C1B 5421   0.317   6.880   5.475 -0.4557 -0.2232  0.0590
    1DIPC   D2B 5422   0.647   7.028   5.200 -0.2701 -0.2533 -0.4681
    1DIPC   D3B 5423   0.632   6.866   4.811  0.2305  0.1969 -0.1868
    1DIPC   C4B 5424   0.295   6.524   4.650 -0.1807  0.1487  0.0421
    1DIPC   NC3 5425  28.357   6.084   6.281  0.3160 -0.0438  0.0612
    1DIPC   PO4 5426  28.116   5.853   6.470  0.0921 -0.1413  0.3582
    1DIPC   GL1 5427  28.003   5.785   6.063 -0.2167 -0.2366 -0.1241
    1DIPC   GL2 5428  28.121   5.420   6.025  0.0380  0.0559  0.1942
    1DIPC   C1A 5429  27.747   5.919   5.775  0.0081 -0.0707 -0.2030
    1DIPC   D2A 5430  27.453   5.718   5.368 -0.0949 -0.0232  0.0368
    1DIPC   D3A 5431  27.558   5.686   4.918 -0.0201 -0.2112 -0.0211
    1DIPC   C4A 5432  27.515   5.346   4.678  0.0385 -0.1361 -0.0872
    1DIPC   C1B 5433  28.190   5.178   5.625  0.0885 -0.0462  0.2205
    1DIPC   D2B 5434  28.055   4.933   5.343 -0.0227  0.0030 -0.1707
    1DIPC   D3B 5435  28.398   4.835   5.200 -0.1016 -0.0201  0.0232
    1DIPC   C4B 5436  28.464   4.626   4.859  0.0665  0.1356 -0.0731
    1DIPC   NC3 5437  26.071  28.139   6.898 -0.0360  0.1296 -0.1148
    1DIPC   PO4 5438  25.723  28.239   6.698  0.1739 -0.3298 -0.0194
    1DIPC   GL1 5439  25.487  27.971   6.343 -0.2472 -0.0421 -0.0126
    1DIPC   GL2 5440  25.392  28.218   6.105  0.0643 -0.1021 -0.0185
    1DIPC   C1A 5441  25.196  27.717   6.118 -0.1693  0.2060 -0.1424
    1DIPC   D2A 5442  24.837  27.400   6.126  0.2318  0.1891 -0.2241
    1DIPC   D3A 5443  25.222  27.240   6.035 -0.0222  0.2517 -0.0139
    1DIPC   C4A 5444  25.298  26.815   5.837  0.2254 -0.1700 -0.1173
    1DIPC   C1B 5445  25.242  28.075   5.764 -0.0954 -0.2068  0.1292
    1DIPC   D2B 5446  25.038  27.964   5.326 -0.0253  0.3490  0.0608
    1DIPC   D3B 5447  24.631  28.155   5.509  0.0323  0.0663  0.0256
    1DIPC   C4B 5448  24.706  27.823   5.832 -0.0366  0.2063  0.2372
    1DIPC   NC3 5449   7.676   2.366   6.920  0.0675  0.2024 -0.0801
    1DIPC   PO4 5450   7.975   2.627   6.651  0.0685  0.1390 -0.0134
    1DIPC   GL1 5451   7.864   2.941   6.348  0.0064  0.0495 -0.2084
    1DIPC   GL2 5452   7.746   2.835   6.036 -0.1818  0.1669  0.0641
    1DIPC   C1A 5453   7.880   3.350   6.130  0.1599  0.1222  0.1776
    1DIPC   D2A 5454   7.616   3.714   5.857  0.1340 -0.3649 -0.2503
    1DIPC   D3A 5455   7.360   3.576   5.537 -0.0207  0.1347  0.0900
    1DIPC   C4A 5456   6.908   3.526   5.515 -0.0573 -0.1273 -0.0142
    1DIPC   C1B 5457   7.952   2.534   5.808 -0.1250  0.1529 -0.0411
    1DIPC   D2B 5458   7.949   2.122   5.524  0.1359 -0.0654  0.0657
    1DIPC   D3B 5459   7.535   2.008   5.495  0.2529 -0.0049 -0.0071
    1DIPC   C4B 5460   7.489   2.009   4.992  0.1743 -0.1282  0.2658
    1DIPC   NC3 5461  20.576   2.497   6.552  0.1278 -0.0575  0.0176
    1DIPC   PO4 5462  20.924   2.483   6.152  0.1609  0.0819 -0.1148
    1DIPC   GL1 5463  20.650   2.540   5.885  0.0850 -0.0619  0.1096
    1DIPC   GL2 5464  20.374   2.668   6.116  0.1554  0.3648  0.0127
    1DIPC   C1A 5465  20.386   2.608   5.513 -0.2167 -0.2235 -0.2608
    1DIPC   D2A 5466  19.989   2.590   5.253 -0.1096  0.2220  0.1334
    1DIPC   D3A 5467  20.275   2.892   5.113  0.0208  0.0313  0.1000
    1DIPC   C4A 5468  20.397   2.832   4.695 -0.2388  0.1217 -0.0830
    1DIPC   C1B 5469  20.036   2.797   5.812  0.2044  0.0114  0.3298
    1DIPC   D2B 5470  20.033   3.052   5.532  0.0718  0.0550  0.1433
    1DIPC   D3B 5471  19.829   3.203   5.195  0.3528 -0.1639  0.3320
    1DIPC   C4B 5472  19.963   3.625   5.361  0.3494 -0.1480 -0.0913
    1DIPC   NC3 5473   8.831  22.717   6.029  0.0150  0.1282 -0.0479
    1DIPC   PO4 5474   9.223  22.854   5.762 -0.2952  0.0744  0.1225
    1DIPC   GL1 5475   9.453  22.956   5.373 -0.1853  0.0081  0.0928
    1DIPC   GL2 5476   9.726  22.964   5.325 -0.1288  0.0469  0.1120
    1DIPC   C1A 5477   9.530  22.986   4.820 -0.2257 -0.0965 -0.1765
    1DIPC   D2A 5478   9.380  23.081   4.500  0.1742 -0.0930  0.0991
    1DIPC   D3A 5479   9.685  22.999   4.305  0.1542  0.2174 -0.0903
    1DIPC   C4A 5480   9.711  22.803   3.849 -0.1001 -0.1034 -0.0530
    1DIPC   C1B 5481   9.687  22.480   5.208 -0.1581  0.0099  0.1762
    1DIPC   D2B 5482   9.420  22.496   4.873  0.0872  0.0014  0.0190
    1DIPC   D3B 5483   9.055  22.269   4.840  0.1793 -0.2274  0.0259
    1DIPC   C4B 5484   8.826  22.040   5.111  0.0366 -0.0500  0.3130
    1DIPC   NC3 5485   8.440  27.573   6.909 -0.1724 -0.1190  0.0806
    1DIPC   PO4 5486   8.536  27.764   6.488  0.4552  0.0904  0.3271
    1DIPC   GL1 5487   8.372  27.966   6.192 -0.0599  0.2763 -0.1805
    1DIPC   GL2 5488   8.688  28.011   6.025  0.1729 -0.0048  0.1249
    1DIPC   C1A 5489   8.256  27.961   5.762  0.1879  0.0253  0.0046
    1DIPC   D2A 5490   8.432  27.916   5.387  0.1755  0.2382  0.0245
    1DIPC   D3A 5491   8.114  27.973   4.995 -0.1250  0.2056  0.0976
    1DIPC   C4A 5492   8.063  27.629   4.795  0.0792  0.0316 -0.1201
    1DIPC   C1B 5493   8.865  28.007   5.607  0.0128 -0.2501 -0.1761
    1DIPC   D2B 5494   8.917  27.892   5.272  0.1132  0.1334  0.2427
    1DIPC   D3B 5495   9.303  27.840   5.139 -0.0726  0.2307 -0.0244
    1DIPC   C4B 5496   9.329  27.533   4.830 -0.1299 -0.0004 -0.2678
    1DIPC   NC3 5497   1.825   7.364   6.796  0.4172  0.1424 -0.1222
    1DIPC   PO4 5498   1.484   7.110   6.428 -0.0562  0.0907  0.0851
    1DIPC   GL1 5499   1.335   7.326   6.050 -0.1173  0.2589 -0.3216
    1DIPC   GL2 5500   1.091   7.639   6.097 -0.2856  0.1677 -0.1490
    1DIPC   C1A 5501   1.571   7.225   5.625  0.1892  0.1116  0.0655
    1DIPC   D2A 5502   1.492   7.485   5.267  0.1006 -0.1285  0.1129
    1DIPC   D3A 5503   1.882   7.305   5.278  0.2813  0.1811 -0.4245
    1DIPC   C4A 5504   2.130   7.333   4.888 -0.0545  0.1129 -0.0634
    1DIPC   C1B 5505   1.117   7.507   5.711  0.0148  0.3479  0.2136
    1DIPC   D2B 5506   1.089   7.219   5.341  0.1315  0.0622  0.1725
    1DIPC   D3B 5507   1.300   7.044   5.025  0.1349 -0.1256 -0.1393
    1DIPC   C4B 5508   1.081   6.752   4.825 -0.0124  0.1559  0.0407
    1DIPC   NC3 5509  22.753  10.848   6.979 -0.1494 -0.2150  0.1345
    1DIPC   PO4 5510  22.558  10.870   6.519 -0.0997  0.3301 -0.2429
    1DIPC   GL1 5511  22.338  10.872   6.042 -0.2086  0.3272  0.1052
    1DIPC   GL2 5512  22.546  10.835   5.818  0.0094  0.0131 -0.2370
    1DIPC   C1A 5513  22.081  11.057   5.696  0.3159 -0.0352 -0.0576
    1DIPC   D2A 5514  22.025  11.093   5.274  0.2514  0.0300  0.2870
    1DIPC   D3A 5515  21.838  10.992   4.984  0.1310  0.1890 -0.0250
    1DIPC   C4A 5516  21.456  10.940   5.035 -0.0580 -0.1041 -0.0734
    1DIPC   C1B 5517  22.471  10.976   5.395 -0.1535 -0.0269 -0.3142
    1DIPC   D2B 5518  22.446  11.191   4.967 -0.0951 -0.2669  0.0677
    1DIPC   D3B 5519  22.359  10.941   4.604  0.1957  0.0887  0.0151
    1DIPC   C4B 5520  22.733  10.708   4.476  0.1883 -0.0180  0.3206
    1DIPC   NC3 5521   9.251   4.796   6.972  0.2159  0.0275  0.1445
    1DIPC   PO4 5522   9.530   4.633   6.725  0.2059  0.0103 -0.2937
    1DIPC   GL1 5523   9.495   4.482   6.355 -0.0043 -0.1162  0.1058
    1DIPC   GL2 5524   9.304   4.692   6.256 -0.2562  0.2119  0.1608
    1DIPC   C1A 5525   9.421   4.235   5.894  0.0245  0.3233 -0.0568
    1DIPC   D2A 5526   9.142   4.066   5.626 -0.2094 -0.0072  0.1195
    1DIPC   D3A 5527   9.534   4.054   5.490  0.0286 -0.5674 -0.1138
    1DIPC   C4A 5528   9.744   4.341   5.151 -0.0713 -0.0663 -0.2040
    1DIPC   C1B 5529   9.462   4.794   5.886  0.2762 -0.0125  0.1548
    1DIPC   D2B 5530   9.804   4.976   5.679  0.1784  0.2812 -0.3902
    1DIPC   D3B 5531   9.953   4.832   5.303 -0.0168 -0.4561 -0.3376
    1DIPC   C4B 5532  10.411   4.937   5.257 -0.1878  0.0683 -0.0222
    1DIPC   NC3 5533   2.593   6.810   6.510 -0.1871 -0.4238  0.0116
    1DIPC   PO4 5534   2.215   6.953   6.322 -0.2244 -0.1583  0.1206
    1DIPC   GL1 5535   2.521   7.183   6.026  0.0553  0.0093 -0.0507
    1DIPC   GL2 5536   2.798   6.753   6.024 -0.0054  0.0408  0.1626
    1DIPC   C1A 5537   2.769   7.071   5.566  0.1298 -0.0152 -0.0814
    1DIPC   D2A 5538   3.103   7.068   5.321  0.3253 -0.3572 -0.2576
    1DIPC   D3A 5539   2.934   6.784   5.060 -0.0712 -0.0798 -0.1874
    1DIPC   C4A 5540   3.008   6.548   4.642 -0.1624 -0.0815  0.2287
    1DIPC   C1B 5541   3.004   6.597   5.571 -0.1824 -0.2896  0.1414
    1DIPC   D2B 5542   3.369   6.568   5.256  0.2840 -0.2802  0.0400
    1DIPC   D3B 5543   3.643   6.387   5.158  0.0744 -0.0114  0.2599
    1DIPC   C4B 5544   3.783   5.920   4.935 -0.4396 -0.1043  0.0776
    1DIPC   NC3 5545   2.286   6.113   7.118  0.1907 -0.2561  0.0686
    1DIPC   PO4 5546   1.982   6.091   6.779  0.2082  0.1157  0.0679
    1DIPC   GL1 5547   2.019   6.031   6.313  0.1952 -0.0162  0.0228
    1DIPC   GL2 5548   1.739   6.144   6.162  0.1817 -0.1016 -0.0431
    1DIPC   C1A 5549   2.227   6.010   5.943 -0.2803  0.0389 -0.2471
    1DIPC   D2A 5550   2.608   6.153   5.662 -0.1836 -0.0928  0.4419
    1DIPC   D3A 5551   2.561   5.761   5.406  0.0633  0.0212 -0.2007
    1DIPC   C4A 5552   2.236   5.915   5.042 -0.1141 -0.0843 -0.0856
    1DIPC   C1B 5553   1.840   6.344   5.790 -0.3723 -0.2818  0.0275
    1DIPC   D2B 5554   1.732   6.718   5.674 -0.1136  0.0925  0.2949
    1DIPC   D3B 5555   1.666   6.764   5.299  0.2675 -0.0594 -0.0699
    1DIPC   C4B 5556   1.786   6.911   4.961 -0.2187  0.2215 -0.0557
    1DIPC   NC3 5557   0.259   2.312   6.520  0.0613  0.1133 -0.1123
    1DIPC   PO4 5558  -0.151   2.394   6.618  0.1165 -0.1991  0.0733
    1DIPC   GL1 5559  -0.097   2.555   6.270 -0.0953 -0.0970  0.1769
    1DIPC   GL2 5560  -0.078   2.330   6.127 -0.0255  0.1492  0.1373
    1DIPC   C1A 5561  -0.204   2.535   5.695 -0.2364  0.1594 -0.2268
    1DIPC   D2A 5562  -0.309   2.297   5.313 -0.0585  0.2517 -0.0862
    1DIPC   D3A 5563  -0.753   2.170   5.282  0.0944 -0.0570 -0.0706
    1DIPC   C4A 5564  -0.948   1.723   5.152 -0.0003 -0.2970 -0.1816
    1DIPC   C1B 5565  -0.401   1.900   6.176 -0.0997 -0.1808  0.0671
    1DIPC   D2B 5566  -0.740   1.590   6.091 -0.1865  0.0921 -0.0231
    1DIPC   D3B 5567  -0.799   2.010   5.896 -0.5882  0.0281  0.1054
    1DIPC   C4B 5568  -0.466   2.125   5.765 -0.3836  0.1565 -0.1520
    1DIPC   NC3 5569   9.672  28.425   6.736  0.1379 -0.0757 -0.2930
    1DIPC   PO4 5570   9.357  28.166   6.680  0.2746 -0.3275 -0.1057
    1DIPC   GL1 5571   9.495  28.375   6.269 -0.0466 -0.0286 -0.1081
    1DIPC   GL2 5572   9.662  28.713   6.249 -0.0014  0.0371  0.0560
    1DIPC   C1A 5573   9.646  28.479   5.809  0.0132  0.1465 -0.0393
    1DIPC   D2A 5574   9.590  28.721   5.484 -0.2114  0.1287 -0.3800
    1DIPC   D3A 5575   9.930  28.450   5.272  0.4014  0.2055  0.1339
    1DIPC   C4A 5576   9.913  28.036   5.136 -0.1035  0.0888  0.0960
    1DIPC   C1B 5577   9.496  28.959   5.923  0.0696  0.2413 -0.2439
    1DIPC   D2B 5578   9.535  29.169   5.599  0.1416  0.2053 -0.2995
    1DIPC   D3B 5579   9.271  29.193   5.275  0.1712  0.4638  0.0136
    1DIPC   C4B 5580   8.801  29.374   5.213  0.2696  0.2315  0.0912
    1DIPC   NC3 5581  18.293  26.318   7.057  0.2389 -0.0739  0.2050
    1DIPC   PO4 5582  18.394  26.193   6.740 -0.0678  0.2576 -0.0434
    1DIPC   GL1 5583  18.215  26.319   6.308 -0.0948  0.0083  0.0623
    1DIPC   GL2 5584  18.354  26.688   6.204 -0.0355 -0.1773 -0.0841
    1DIPC   C1A 5585  18.317  26.151   5.902 -0.1727  0.2035 -0.0429
    1DIPC   D2A 5586  18.140  26.068   5.527 -0.0538  0.0521  0.3941
    1DIPC   D3A 5587  18.416  25.781   5.568  0.0827  0.0910 -0.1611
    1DIPC   C4A 5588  18.385  25.386   5.325  0.6197 -0.3132 -0.3253
    1DIPC   C1B 5589  18.227  26.691   5.855 -0.1112  0.2714  0.2167
    1DIPC   D2B 5590  17.873  26.528   5.683 -0.1388 -0.0936 -0.3940
    1DIPC   D3B 5591  18.023  26.485   5.263  0.1497 -0.2811  0.3170
    1DIPC   C4B 5592  17.643  26.472   4.998  0.1531 -0.1013  0.0959
    1DIPC   NC3 5593   7.415  22.097   5.503  0.1593  0.2442  0.0448
    1DIPC   PO4 5594   7.440  21.794   5.685 -0.2220  0.1814  0.3781
    1DIPC   GL1 5595   7.499  21.729   5.202  0.1504 -0.3485 -0.1299
    1DIPC   GL2 5596   7.234  21.535   5.097 -0.5532  0.1534 -0.1618
    1DIPC   C1A 5597   7.577  21.827   4.755 -0.0073  0.1376  0.0994
    1DIPC   D2A 5598   7.774  21.848   4.360 -0.1500 -0.1704  0.0047
    1DIPC   D3A 5599   7.957  21.584   4.503  0.0775  0.0330  0.4287
    1DIPC   C4A 5600   8.171  21.589   4.844 -0.1583 -0.0133 -0.4439
    1DIPC   C1B 5601   7.282  21.398   4.697  0.1183 -0.0300  0.0544
    1DIPC   D2B 5602   7.518  21.370   4.298  0.0039 -0.0555 -0.0544
    1DIPC   D3B 5603   7.409  21.729   4.078  0.0121 -0.2598 -0.2110
    1DIPC   C4B 5604   7.021  21.605   3.829 -0.0626 -0.0519  0.2408
    1DIPC   NC3 5605   2.824  16.882   6.070  0.0078 -0.1643 -0.2829
    1DIPC   PO4 5606   2.852  16.989   5.739  0.0008  0.3094  0.0647
    1DIPC   GL1 5607   3.090  16.778   5.417 -0.4063  0.3653  0.0422
    1DIPC   GL2 5608   3.308  16.976   5.353 -0.0187  0.0671 -0.1078
    1DIPC   C1A 5609   3.122  16.722   4.917 -0.2495 -0.0304  0.1437
    1DIPC   D2A 5610   3.119  17.049   4.560  0.1935 -0.1095  0.1401
    1DIPC   D3A 5611   3.029  16.979   4.110 -0.0921  0.1640 -0.1731
    1DIPC   C4A 5612   3.394  17.120   3.845 -0.0804 -0.3269 -0.1261
    1DIPC   C1B 5613   3.531  16.970   5.058  0.2492  0.1620 -0.0336
    1DIPC   D2B 5614   3.568  16.665   4.745  0.0001 -0.0017 -0.2757
    1DIPC   D3B 5615   3.989  16.635   4.448  0.0090  0.1045 -0.1021
    1DIPC   C4B 5616   3.981  16.430   4.010  0.0308  0.0834 -0.1993
    1DIPC   NC3 5617   3.130  26.009   6.814  0.1345  0.0659  0.0708
    1DIPC   PO4 5618   3.200  26.069   6.408  0.4291 -0.0683 -0.2162
    1DIPC   GL1 5619   3.472  26.034   6.105  0.0766 -0.1656 -0.3245
    1DIPC   GL2 5620   3.406  26.308   5.790 -0.0561  0.1968  0.1076
    1DIPC   C1A 5621   3.639  25.915   5.620 -0.1442 -0.2699  0.0230
    1DIPC   D2A 5622   4.069  25.861   5.533 -0.1350  0.0514 -0.1676
    1DIPC   D3A 5623   4.133  25.614   5.110  0.1393 -0.2454 -0.3071
    1DIPC   C4A 5624   4.462  25.622   4.853 -0.2060  0.0622  0.0529
    1DIPC   C1B 5625   3.326  26.280   5.387 -0.0366  0.0294  0.0321
    1DIPC   D2B 5626   3.416  26.047   5.125 -0.2518 -0.2417  0.0704
    1DIPC   D3B 5627   3.331  26.398   4.826 -0.1327  0.0325 -0.2319
    1DIPC   C4B 5628   3.149  26.258   4.423 -0.1272  0.3407  0.1449
    1DIPC   NC3 5629  21.665  23.389   6.253 -0.2241  0.0528  0.0289
    1DIPC   PO4 5630  21.382  23.112   6.310  0.1121  0.0021 -0.1192
    1DIPC   GL1 5631  21.462  23.044   5.914 -0.1020 -0.0510  0.6391
    1DIPC   GL2 5632  21.508  23.373   5.736  0.0538  0.3018 -0.0306
    1DIPC   C1A 5633  21.539  22.902   5.382  0.0243  0.0570  0.0606
    1DIPC   D2A 5634  21.577  22.708   5.073 -0.0888 -0.0002 -0.1087
    1DIPC   D3A 5635  21.500  23.080   4.839 -0.0201 -0.0324 -0.1208
    1DIPC   C4A 5636  21.068  23.151   4.922 -0.0911  0.3148 -0.0855
    1DIPC   C1B 5637  21.861  23.312   5.574 -0.0361  0.3505  0.0282
    1DIPC   D2B 5638  22.274  23.432   5.219  0.3137  0.1251  0.4031
    1DIPC   D3B 5639  22.019  23.361   4.880  0.1951 -0.0323 -0.2132
    1DIPC   C4B 5640  21.941  22.943   4.692  0.0861 -0.1750  0.2555
    1DIPC   NC3 5641  25.084  12.789   6.168  0.0194  0.0366 -0.0523
    1DIPC   PO4 5642  24.937  12.860   5.718 -0.0026  0.0933  0.0121
    1DIPC   GL1 5643  24.558  12.870   5.485 -0.1447 -0.0707  0.1066
    1DIPC   GL2 5644  24.556  12.727   5.258  0.1593 -0.1819  0.1203
    1DIPC   C1A 5645  24.411  13.231   5.172  0.0986 -0.1748 -0.0057
    1DIPC   D2A 5646  24.311  13.158   4.749 -0.2267 -0.1014  0.0533
    1DIPC   D3A 5647  23.976  13.423   4.957 -0.0865  0.1131 -0.5193
    1DIPC   C4A 5648  23.935  13.786   5.232  0.1921  0.0219  0.1807
    1DIPC   C1B 5649  24.439  12.488   4.818 -0.1724  0.0585 -0.0508
    1DIPC   D2B 5650  24.160  12.240   4.557  0.0818  0.1213  0.5726
    1DIPC   D3B 5651  23.813  12.170   4.594  0.2281 -0.2634 -0.1286
    1DIPC   C4B 5652  23.618  12.435   4.351 -0.2185 -0.1463  0.2097
    1DIPC   NC3 5653  10.101   0.538   7.080  0.2251 -0.1748  0.2717
    1DIPC   PO4 5654   9.890   0.934   7.149 -0.0237 -0.1074 -0.1123
    1DIPC   GL1 5655   9.890   0.876   6.757 -0.1265  0.0926 -0.3357
    1DIPC   GL2 5656  10.165   0.695   6.563  0.0502  0.1888  0.1976
    1DIPC   C1A 5657   9.648   0.842   6.296 -0.2812  0.0233 -0.4060
    1DIPC   D2A 5658   9.666   0.474   5.941 -0.1046 -0.1829  0.2532
    1DIPC   D3A 5659   9.724   0.265   5.521 -0.1994  0.2087  0.0748
    1DIPC   C4A 5660   9.517   0.247   5.159  0.1031 -0.2228 -0.2721
    1DIPC   C1B 5661   9.852   0.374   6.402 -0.0844 -0.0173  0.0789
    1DIPC   D2B 5662   9.563   0.196   6.294 -0.1800  0.0209  0.2566
    1DIPC   D3B 5663   9.653  -0.260   6.160 -0.1438  0.1097  0.1771
    1DIPC   C4B 5664   9.899  -0.603   6.327  0.0682 -0.1798  0.4854
    1DIPC   NC3 5665  13.877  26.205   6.465 -0.1024  0.0462  0.1485
    1DIPC   PO4 5666  13.508  26.343   6.711  0.2504 -0.0148 -0.1010
    1DIPC   GL1 5667  13.322  26.359   6.338 -0.6532  0.0752  0.0410
    1DIPC   GL2 5668  13.373  26.463   5.996  0.0976 -0.1408  0.0685
    1DIPC   C1A 5669  13.115  26.037   5.984 -0.1369  0.0553 -0.1368
    1DIPC   D2A 5670  12.888  25.684   5.947 -0.0505  0.3111 -0.0869
    1DIPC   D3A 5671  12.753  25.596   5.503 -0.2909 -0.1172  0.2418
    1DIPC   C4A 5672  12.690  25.483   5.001  0.2466 -0.0264 -0.1367
    1DIPC   C1B 5673  13.117  26.533   5.697  0.0754 -0.2588 -0.1208
    1DIPC   D2B 5674  12.907  26.695   5.252  0.2243  0.3216 -0.2790
    1DIPC   D3B 5675  12.641  26.569   4.984  0.1177 -0.3127  0.1919
    1DIPC   C4B 5676  12.248  26.854   5.024  0.3358  0.1104 -0.1670
    1DIPC   NC3 5677   0.345  25.048   5.778  0.3383 -0.4507 -0.0739
    1DIPC   PO4 5678   0.206  24.712   6.005 -0.0217 -0.1080 -0.0257
    1DIPC   GL1 5679   0.083  24.557   5.626 -0.0055 -0.0479 -0.2633
    1DIPC   GL2 5680   0.248  24.334   5.572  0.0113  0.2067  0.0647
    1DIPC   C1A 5681  -0.159  24.739   5.302  0.0778  0.3773 -0.0319
    1DIPC   D2A 5682  -0.435  25.019   5.053 -0.2014 -0.1735 -0.0012
    1DIPC   D3A 5683  -0.230  24.993   4.642  0.3418  0.2768 -0.0371
    1DIPC   C4A 5684  -0.331  24.798   4.262  0.2760 -0.0519  0.0034
    1DIPC   C1B 5685   0.169  24.260   5.136  0.0428  0.1590  0.0470
    1DIPC   D2B 5686   0.049  24.550   4.707  0.0271 -0.0523  0.1693
    1DIPC   D3B 5687   0.497  24.448   4.760  0.1612 -0.1388  0.2852
    1DIPC   C4B 5688   0.733  24.526   4.409  0.0800  0.0709  0.2332
    1DIPC   NC3 5689  23.638  22.942   6.495  0.1664 -0.2102  0.4511
    1DIPC   PO4 5690  23.564  22.706   6.108 -0.0507  0.1641 -0.0342
    1DIPC   GL1 5691  23.711  22.460   5.781 -0.0023  0.2402 -0.1411
    1DIPC   GL2 5692  24.015  22.444   5.759  0.1501 -0.0004 -0.5211
    1DIPC   C1A 5693  23.553  22.041   5.607 -0.0451 -0.4780  0.3798
    1DIPC   D2A 5694  23.149  21.830   5.745  0.0572  0.1662  0.1929
    1DIPC   D3A 5695  23.207  21.496   5.465 -0.0831 -0.3599  0.1558
    1DIPC   C4A 5696  23.449  21.081   5.525  0.0331 -0.0204 -0.2493
    1DIPC   C1B 5697  23.854  22.718   5.414 -0.0649  0.2234 -0.1792
    1DIPC   D2B 5698  23.693  22.990   5.188 -0.0469 -0.1463 -0.0516
    1DIPC   D3B 5699  23.875  22.903   4.807 -0.0910  0.2076  0.1062
    1DIPC   C4B 5700  23.771  23.372   4.624 -0.1345  0.2671  0.2236
    1DIPC   NC3 5701   2.505  29.506   7.326 -0.1186 -0.0500  0.1367
    1DIPC   PO4 5702   2.284  29.574   6.916  0.0673  0.1639  0.1706
    1DIPC   GL1 5703   2.395  29.520   6.499 -0.3993  0.1965 -0.0234
    1DIPC   GL2 5704   2.144  29.231   6.464 -0.3403  0.0221  0.0056
    1DIPC   C1A 5705   2.679  29.399   6.175  0.1149  0.1205  0.2651
    1DIPC   D2A 5706   3.060  29.187   6.043  0.2896  0.2415  0.0450
    1DIPC   D3A 5707   2.880  28.966   5.685  0.1931  0.2039  0.1636
    1DIPC   C4A 5708   3.034  28.755   5.437 -0.0132 -0.1402  0.2853
    1DIPC   C1B 5709   2.216  29.397   6.046 -0.0528  0.1917 -0.1492
    1DIPC   D2B 5710   2.204  29.744   5.784 -0.1550  0.2221  0.2477
    1DIPC   D3B 5711   1.736  29.777   5.838  0.4471  0.0593 -0.1164
    1DIPC   C4B 5712   1.563  29.870   6.250 -0.0173 -0.0204  0.0992
    1DIPC   NC3 5713   4.895  13.260   6.280 -0.0603 -0.0351  0.1236
    1DIPC   PO4 5714   4.408  13.218   6.358  0.2027 -0.1013  0.1966
    1DIPC   GL1 5715   4.335  13.418   5.937 -0.2168  0.4040  0.0755
    1DIPC   GL2 5716   4.110  13.491   5.917  0.1433 -0.0898 -0.3585
    1DIPC   C1A 5717   4.384  13.419   5.482  0.3359  0.3135 -0.0775
    1DIPC   D2A 5718   4.268  13.544   5.080 -0.0915  0.0674 -0.1990
    1DIPC   D3A 5719   4.612  13.575   4.752 -0.1868 -0.3510 -0.0477
    1DIPC   C4A 5720   4.569  13.867   4.445 -0.3793  0.0582 -0.2644
    1DIPC   C1B 5721   4.022  13.769   5.517  0.1008  0.0951  0.0895
    1DIPC   D2B 5722   4.238  14.030   5.210  0.2910 -0.1454 -0.2587
    1DIPC   D3B 5723   4.018  14.328   5.034  0.0686 -0.0940 -0.0207
    1DIPC   C4B 5724   3.937  14.698   5.324  0.2150 -0.2573  0.4674
    1DIPC   NC3 5725   6.458  16.483   6.837 -0.3892 -0.0965 -0.1104
    1DIPC   PO4 5726   6.380  16.366   6.331 -0.3088 -0.4409 -0.1358
    1DIPC   GL1 5727   6.290  16.434   5.787 -0.1684  0.1015 -0.3126
    1DIPC   GL2 5728   6.177  16.744   5.764  0.1037  0.1219  0.2067
    1DIPC   C1A 5729   6.431  16.310   5.352 -0.0099  0.1960 -0.0706
    1DIPC   D2A 5730   6.712  16.311   5.010 -0.2242 -0.3655 -0.1821
    1DIPC   D3A 5731   6.450  16.593   4.745  0.2985  0.2373  0.3259
    1DIPC   C4A 5732   6.590  16.863   4.505  0.1347  0.3206 -0.0811
    1DIPC   C1B 5733   6.539  16.974   5.880 -0.3224  0.2379 -0.1360
    1DIPC   D2B 5734   6.619  17.422   5.714 -0.0603 -0.0203  0.0789
    1DIPC   D3B 5735   6.944  17.513   5.747 -0.2893  0.0372  0.0710
    1DIPC   C4B 5736   7.157  17.804   5.982  0.1640 -0.2886  0.0787
    1DIPC   NC3 5737  26.789   2.714   6.209 -0.1152 -0.2073  0.1329
    1DIPC   PO4 5738  26.615   3.189   6.349  0.1218  0.1426  0.3034
    1DIPC   GL1 5739  26.398   3.267   6.023  0.0814 -0.1310  0.2438
    1DIPC   GL2 5740  26.305   3.538   6.110 -0.1952 -0.0010 -0.1954
    1DIPC   C1A 5741  26.277   3.147   5.639  0.1542 -0.1160  0.1993
    1DIPC   D2A 5742  26.049   2.910   5.388  0.2311  0.2269  0.4135
    1DIPC   D3A 5743  25.959   2.734   4.908 -0.2071  0.1609  0.1757
    1DIPC   C4A 5744  26.040   2.825   4.518 -0.2669  0.1865 -0.1872
    1DIPC   C1B 5745  26.184   3.629   5.763  0.2138  0.0769 -0.0332
    1DIPC   D2B 5746  26.460   3.562   5.340  0.0879 -0.3147  0.0186
    1DIPC   D3B 5747  26.607   3.611   4.919 -0.2869  0.1649  0.0770
    1DIPC   C4B 5748  26.572   3.975   4.604  0.3501 -0.0112 -0.0456
    1DIPC   NC3 5749  28.385  12.111   5.617 -0.0138  0.1597 -0.0041
    1DIPC   PO4 5750  27.926  12.125   5.494  0.0534 -0.3338 -0.2949
    1DIPC   GL1 5751  27.842  12.011   5.115  0.3443  0.1841  0.1611
    1DIPC   GL2 5752  27.701  12.181   4.884  0.0219 -0.2294  0.1909
    1DIPC   C1A 5753  27.980  11.653   4.928  0.1490  0.0601  0.0408
    1DIPC   D2A 5754  27.948  11.390   4.592 -0.1421 -0.2507 -0.0262
    1DIPC   D3A 5755  27.888  11.812   4.417  0.1125  0.3681 -0.1162
    1DIPC   C4A 5756  27.860  11.719   3.956 -0.0386  0.2390 -0.1188
    1DIPC   C1B 5757  27.452  12.132   4.609 -0.0923 -0.0211  0.0808
    1DIPC   D2B 5758  27.329  11.896   4.320  0.1322  0.0347 -0.1154
    1DIPC   D3B 5759  27.470  11.491   4.345 -0.1809 -0.0504 -0.1888
    1DIPC   C4B 5760  27.338  11.105   4.347 -0.0870  0.1228  0.0831
    1DIPC   NC3 5761  11.113   6.435   7.541 -0.2465 -0.1855  0.1174
    1DIPC   PO4 5762  11.490   6.362   7.322  0.0681  0.1695  0.0538
    1DIPC   GL1 5763  11.762   6.319   6.964 -0.0677 -0.0643 -0.3407
    1DIPC   GL2 5764  11.963   6.006   6.950  0.0418  0.3270 -0.1365
    1DIPC   C1A 5765  11.872   6.364   6.571 -0.2564  0.1339  0.0303
    1DIPC   D2A 5766  11.699   6.332   6.135 -0.0875  0.0506 -0.3419
    1DIPC   D3A 5767  11.576   6.035   5.884 -0.1877 -0.0815 -0.1754
    1DIPC   C4A 5768  11.519   6.041   5.464 -0.2044  0.3683  0.2199
    1DIPC   C1B 5769  11.998   5.895   6.576 -0.1460  0.1540  0.1058
    1DIPC   D2B 5770  11.793   5.778   6.256 -0.3793 -0.2845 -0.4586
    1DIPC   D3B 5771  12.159   5.637   5.917  0.1913  0.1866 -0.0306
    1DIPC   C4B 5772  12.039   5.797   5.512 -0.3011 -0.0814  0.0771
    1DIPC   NC3 5773  19.364  22.691   6.376 -0.1071 -0.1786 -0.1574
    1DIPC   PO4 5774  19.696  22.388   6.379  0.0188  0.1517 -0.1602
    1DIPC   GL1 5775  19.788  22.450   5.987  0.0859 -0.0727  0.2162
    1DIPC   GL2 5776  19.924  22.802   6.129  0.0802  0.2664 -0.1496
    1DIPC   C1A 5777  19.486  22.776   5.751 -0.1389  0.3766 -0.4318
    1DIPC   D2A 5778  19.412  22.992   5.345  0.0285  0.1291 -0.0554
    1DIPC   D3A 5779  19.117  23.061   4.993  0.5199 -0.0328  0.1108
    1DIPC   C4A 5780  19.152  22.848   4.565 -0.2674  0.1163 -0.3138
    1DIPC   C1B 5781  20.054  22.791   5.655  0.1050 -0.3902 -0.0110
    1DIPC   D2B 5782  19.929  23.066   5.277  0.4548 -0.1291 -0.0382
    1DIPC   D3B 5783  20.253  22.927   5.154  0.0748  0.0756  0.1118
    1DIPC   C4B 5784  20.522  23.195   5.060 -0.1216  0.0408  0.3976
    1DIPC   NC3 5785   7.288  25.494   6.731 -0.2851 -0.1137 -0.2875
    1DIPC   PO4 5786   7.420  25.753   6.358 -0.0372 -0.1548 -0.0915
    1DIPC   GL1 5787   7.363  25.523   6.085 -0.1272 -0.0174  0.1625
    1DIPC   GL2 5788   7.614  25.524   5.745  0.3833 -0.1185  0.1678
    1DIPC   C1A 5789   7.123  25.509   5.787  0.0542  0.3698  0.3550
    1DIPC   D2A 5790   7.313  25.553   5.302 -0.3212  0.0943 -0.1754
    1DIPC   D3A 5791   7.436  25.878   5.011  0.1518  0.0702  0.4654
    1DIPC   C4A 5792   7.366  26.312   4.744 -0.0750  0.0397  0.1061
    1DIPC   C1B 5793   7.951  25.535   5.718 -0.0271  0.0872  0.2234
    1DIPC   D2B 5794   8.337  25.400   5.629  0.1408  0.0106 -0.0252
    1DIPC   D3B 5795   8.385  25.699   5.327 -0.0991 -0.0368 -0.1711
    1DIPC   C4B 5796   8.300  26.124   5.303  0.2150 -0.0492  0.0838
    1DIPC   NC3 5797  20.492   5.046   7.468 -0.3303 -0.0627  0.1296
    1DIPC   PO4 5798  20.812   5.325   7.435  0.0729  0.2652 -0.1467
    1DIPC   GL1 5799  20.620   5.269   6.971 -0.2347 -0.1114  0.1798
    1DIPC   GL2 5800  20.463   5.566   6.751 -0.1276  0.0085 -0.0879
    1DIPC   C1A 5801  20.498   5.087   6.582  0.0194  0.2479  0.1465
    1DIPC   D2A 5802  20.438   5.165   6.092 -0.1500  0.0176  0.0574
    1DIPC   D3A 5803  20.752   4.978   6.164 -0.3747  0.1501 -0.1716
    1DIPC   C4A 5804  20.744   4.476   6.061 -0.1893 -0.2608  0.0039
    1DIPC   C1B 5805  20.493   5.634   6.345 -0.0890  0.0624  0.1843
    1DIPC   D2B 5806  20.419   5.748   5.935  0.2262  0.3089  0.3515
    1DIPC   D3B 5807  20.424   6.182   5.729  0.0577  0.4450 -0.0194
    1DIPC   C4B 5808  20.587   6.223   5.296  0.0642 -0.1861 -0.0296
    1DIPC   NC3 5809  29.614   7.643   6.303 -0.0399 -0.3536  0.2743
    1DIPC   PO4 5810  29.368   7.225   6.239 -0.1100 -0.2483 -0.2339
    1DIPC   GL1 5811  29.253   6.952   5.876  0.0859  0.4991 -0.2034
    1DIPC   GL2 5812  29.325   7.212   5.586  0.2414  0.0625  0.0038
    1DIPC   C1A 5813  29.281   6.727   5.578 -0.0304  0.2365 -0.0690
    1DIPC   D2A 5814  29.560   6.624   5.268  0.0976  0.2234 -0.1214
    1DIPC   D3A 5815  29.496   6.382   4.947 -0.0057 -0.0465  0.3785
    1DIPC   C4A 5816  29.277   6.503   4.614 -0.2248 -0.2030  0.0771
    1DIPC   C1B 5817  29.329   7.054   5.134 -0.2748  0.2734 -0.0383
    1DIPC   D2B 5818  29.326   6.999   4.621 -0.0957  0.0754  0.1701
    1DIPC   D3B 5819  29.662   6.840   4.814 -0.0957  0.1486  0.2275
    1DIPC   C4B 5820  29.728   6.353   4.494  0.0646 -0.0320  0.1096
    1DIPC   NC3 5821  16.637   8.585   7.264 -0.0348 -0.0210  0.2481
    1DIPC   PO4 5822  16.658   8.120   7.293 -0.1021  0.1131  0.2608
    1DIPC   GL1 5823  16.601   8.105   6.919  0.2111 -0.1259  0.0179
    1DIPC   GL2 5824  16.889   8.032   6.732  0.0011 -0.1185  0.3703
    1DIPC   C1A 5825  16.444   7.851   6.555  0.1274  0.3543 -0.3745
    1DIPC   D2A 5826  16.049   7.670   6.366 -0.1147  0.3917  0.0701
    1DIPC   D3A 5827  15.901   7.917   6.066 -0.3297  0.1889  0.0707
    1DIPC   C4A 5828  15.969   7.924   5.646  0.3371 -0.1042 -0.2043
    1DIPC   C1B 5829  16.871   7.989   6.315 -0.1372 -0.0812 -0.0128
    1DIPC   D2B 5830  16.412   7.914   6.009  0.3755  0.0710  0.3831
    1DIPC   D3B 5831  16.282   7.604   5.914  0.1080  0.2710 -0.0880
    1DIPC   C4B 5832  15.834   7.415   5.843 -0.0557  0.0389 -0.0443
    1DIPC   NC3 5833   7.554   2.072   7.485  0.1007  0.0795  0.0297
    1DIPC   PO4 5834   7.442   1.903   7.084  0.1211  0.2040  0.2433
    1DIPC   GL1 5835   7.395   1.910   6.715  0.2287 -0.1350  0.0847
    1DIPC   GL2 5836   7.216   2.240   6.578 -0.1951 -0.2073 -0.0197
    1DIPC   C1A 5837   7.213   1.830   6.317 -0.0608  0.2705 -0.1860
    1DIPC   D2A 5838   6.919   1.819   6.040 -0.3466 -0.2117  0.3313
    1DIPC   D3A 5839   7.356   1.654   5.866 -0.1691 -0.2698 -0.2648
    1DIPC   C4A 5840   7.737   1.603   5.732 -0.1421 -0.1288 -0.1610
    1DIPC   C1B 5841   7.097   2.301   6.190  0.1531 -0.0445 -0.2659
    1DIPC   D2B 5842   7.251   2.203   5.850  0.0240  0.0947  0.2050
    1DIPC   D3B 5843   7.668   2.040   5.938 -0.1505 -0.1368  0.3624
    1DIPC   C4B 5844   7.792   1.802   6.265 -0.0017  0.0055 -0.0969
    1DIPC   NC3 5845  22.547  28.345   6.503 -0.1253 -0.1888  0.0290
    1DIPC   PO4 5846  22.520  28.666   6.301  0.2279  0.0877 -0.1035
    1DIPC   GL1 5847  22.675  28.392   5.982 -0.1568 -0.0279  0.0797
    1DIPC   GL2 5848  22.849  28.146   6.165 -0.0016  0.0485  0.1909
    1DIPC   C1A 5849  22.746  28.452   5.602 -0.0604  0.0371 -0.2878
    1DIPC   D2A 5850  23.229  28.487   5.652 -0.0289 -0.1568 -0.1671
    1DIPC   D3A 5851  23.388  28.260   5.880 -0.2716 -0.2884  0.0916
    1DIPC   C4A 5852  23.723  28.167   5.689 -0.2152  0.1181 -0.0119
    1DIPC   C1B 5853  22.965  28.010   5.723  0.0731 -0.4060  0.0125
    1DIPC   D2B 5854  23.033  28.163   5.347 -0.0881 -0.0775  0.2074
    1DIPC   D3B 5855  22.729  27.964   5.156 -0.1229  0.0198  0.0545
    1DIPC   C4B 5856  22.856  27.558   5.337  0.4468  0.1630 -0.1224
    1DIPC   NC3 5857  27.245  12.706   5.578 -0.0600 -0.1407  0.1347
    1DIPC   PO4 5858  27.244  13.144   5.606  0.2069  0.0271 -0.1771
    1DIPC   GL1 5859  27.140  12.974   5.192  0.1700  0.1540  0.1051
    1DIPC   GL2 5860  27.366  13.221   5.062  0.0300  0.2640 -0.3195
    1DIPC   C1A 5861  27.092  12.912   4.686  0.3079  0.0857 -0.1233
    1DIPC   D2A 5862  26.957  12.907   4.164  0.2471  0.1184 -0.0635
    1DIPC   D3A 5863  27.295  12.701   3.912  0.0128  0.0934 -0.2880
    1DIPC   C4A 5864  27.260  12.479   3.559  0.1259 -0.0800  0.2360
    1DIPC   C1B 5865  27.595  13.168   4.690 -0.3273 -0.3346 -0.0158
    1DIPC   D2B 5866  27.902  13.276   4.377 -0.0638 -0.1950  0.1404
    1DIPC   D3B 5867  28.153  13.305   4.022 -0.1420  0.3054 -0.1721
    1DIPC   C4B 5868  28.561  13.154   3.984 -0.1530 -0.0878  0.2103
    1DIPC   NC3 5869  27.199  14.930   5.014 -0.2457 -0.0707 -0.0462
    1DIPC   PO4 5870  27.250  15.364   5.103 -0.4236 -0.1049  0.1574
    1DIPC   GL1 5871  27.175  15.365   4.561 -0.0436  0.3157 -0.5350
    1DIPC   GL2 5872  27.284  15.102   4.557  0.1133  0.0100 -0.1175
    1DIPC   C1A 5873  26.887  15.458   4.071 -0.0120 -0.0752  0.3048
    1DIPC   D2A 5874  26.754  15.485   3.702  0.0681 -0.1153 -0.3516
    1DIPC   D3A 5875  26.724  15.901   3.514 -0.1078 -0.1734  0.0229
    1DIPC   C4A 5876  26.663  15.720   3.119  0.0168 -0.1390  0.0890
    1DIPC   C1B 5877  27.144  14.927   4.163  0.1265  0.1984  0.0094
    1DIPC   D2B 5878  26.920  14.993   3.899 -0.0481 -0.1131  0.1141
    1DIPC   D3B 5879  27.254  15.238   3.759 -0.5585 -0.3673 -0.1737
    1DIPC   C4B 5880  27.219  15.643   3.697 -0.2634  0.1528  0.1293
    1DIPC   NC3 5881  22.380  23.655   7.113  0.3007  0.1368  0.0936
    1DIPC   PO4 5882  22.211  23.970   6.770 -0.0142 -0.2056 -0.0466
    1DIPC   GL1 5883  22.182  24.050   6.295  0.1150  0.0440  0.1070
    1DIPC   GL2 5884  22.049  23.713   6.110  0.0638  0.1526 -0.2833
    1DIPC   C1A 5885  22.274  24.163   5.939 -0.1375  0.0154 -0.1295
    1DIPC   D2A 5886  22.196  24.321   5.609 -0.0748 -0.1381 -0.1589
    1DIPC   D3A 5887  21.920  24.236   5.401 -0.0715 -0.0493 -0.1505
    1DIPC   C4A 5888  21.545  24.228   5.407 -0.0113  0.1776 -0.0482
    1DIPC   C1B 5889  21.848  23.794   5.748  0.2068 -0.0205 -0.2221
    1DIPC   D2B 5890  21.714  23.743   5.394  0.0919  0.1304  0.1088
    1DIPC   D3B 5891  22.017  23.816   5.123 -0.2690 -0.0539  0.0385
    1DIPC   C4B 5892  22.136  24.224   4.983 -0.1363  0.1698 -0.3570
    1DIPC   NC3 5893  23.129  11.424   6.455 -0.3361 -0.1510 -0.1415
    1DIPC   PO4 5894  22.654  11.240   6.202 -0.0309  0.2731  0.4709
    1DIPC   GL1 5895  22.516  11.429   5.821  0.0556  0.2514  0.0175
    1DIPC   GL2 5896  22.241  11.481   5.892  0.2602 -0.0098  0.0348
    1DIPC   C1A 5897  22.298  11.482   5.402 -0.1131 -0.0225  0.0608
    1DIPC   D2A 5898  22.122  11.541   4.952  0.0646  0.0028 -0.0193
    1DIPC   D3A 5899  22.407  11.538   4.580  0.1182 -0.1162 -0.2175
    1DIPC   C4A 5900  22.877  11.659   4.612  0.1354  0.2192 -0.0112
    1DIPC   C1B 5901  21.858  11.482   5.708  0.1061  0.1407 -0.2631
    1DIPC   D2B 5902  21.486  11.103   5.621  0.1917 -0.3103  0.2688
    1DIPC   D3B 5903  21.625  10.880   5.886 -0.2977  0.1569 -0.1637
    1DIPC   C4B 5904  21.809  11.168   6.140  0.1629 -0.0109 -0.0325
    1DIPC   NC3 5905  26.042  19.402   6.069  0.1048  0.1133 -0.0598
    1DIPC   PO4 5906  26.361  19.419   5.686 -0.0510  0.0589  0.1513
    1DIPC   GL1 5907  26.004  19.523   5.620 -0.2787  0.4244 -0.3004
    1DIPC   GL2 5908  25.921  19.281   5.461  0.0981  0.0651  0.0614
    1DIPC   C1A 5909  25.908  19.760   5.343  0.1188  0.2914 -0.1956
    1DIPC   D2A 5910  25.879  20.077   5.046 -0.1673 -0.2258 -0.0343
    1DIPC   D3A 5911  25.587  19.957   4.650  0.0275  0.2144  0.2036
    1DIPC   C4A 5912  25.627  19.775   4.246 -0.1408  0.0498  0.0227
    1DIPC   C1B 5913  25.613  19.277   5.190  0.3924 -0.0282  0.0453
    1DIPC   D2B 5914  25.750  19.544   4.808 -0.0861  0.1556 -0.3420
    1DIPC   D3B 5915  25.846  19.430   4.527  0.1786  0.2372 -0.0523
    1DIPC   C4B 5916  25.711  19.304   4.098 -0.1758  0.0088 -0.6029
    1DIPC   NC3 5917  24.692  11.486   5.721  0.2757  0.0247 -0.0393
    1DIPC   PO4 5918  24.271  11.438   5.880 -0.0944 -0.1304  0.0971
    1DIPC   GL1 5919  24.166  11.247   5.500 -0.1677 -0.1361 -0.0868
    1DIPC   GL2 5920  24.337  10.890   5.366  0.0279  0.2799 -0.2981
    1DIPC   C1A 5921  23.978  11.070   5.101  0.0708  0.2380 -0.0568
    1DIPC   D2A 5922  24.051  10.973   4.665 -0.2872 -0.0956  0.1767
    1DIPC   D3A 5923  23.771  11.231   4.479 -0.1620  0.2057  0.0384
    1DIPC   C4A 5924  23.297  11.273   4.531  0.2858  0.0990 -0.1617
    1DIPC   C1B 5925  24.297  10.608   5.038 -0.0047  0.1201  0.0685
    1DIPC   D2B 5926  24.131  10.253   4.750 -0.0285 -0.0313  0.2772
    1DIPC   D3B 5927  24.038   9.858   4.657  0.3290 -0.3190 -0.0100
    1DIPC   C4B 5928  23.607   9.743   4.509  0.0645 -0.0788 -0.0458
    1DIPC   NC3 5929  23.773   7.066   7.028  0.0954 -0.3258  0.0996
    1DIPC   PO4 5930  23.744   7.339   6.677 -0.1937 -0.3759  0.1661
    1DIPC   GL1 5931  23.483   7.153   6.450 -0.1723 -0.1061  0.2466
    1DIPC   GL2 5932  23.447   7.308   6.214 -0.0934  0.0860 -0.0788
    1DIPC   C1A 5933  23.260   6.802   6.141 -0.4678 -0.0354  0.2209
    1DIPC   D2A 5934  23.027   6.785   5.750  0.0930  0.2842  0.1080
    1DIPC   D3A 5935  23.126   6.555   5.316 -0.3225 -0.1830 -0.1575
    1DIPC   C4A 5936  22.934   6.157   5.124  0.2911 -0.2229  0.1656
    1DIPC   C1B 5937  23.393   7.224   5.770 -0.1843 -0.0533  0.1464
    1DIPC   D2B 5938  23.284   7.104   5.315  0.0178  0.2310 -0.0518
    1DIPC   D3B 5939  22.798   6.988   5.315  0.0041 -0.0502  0.4270
    1DIPC   C4B 5940  22.485   7.008   5.025 -0.0136 -0.1776  0.1538
    1DIPC   NC3 5941  25.446  23.813   6.228  0.2089  0.1116  0.1240
    1DIPC   PO4 5942  25.062  23.593   6.323 -0.0522 -0.0873  0.0888
    1DIPC   GL1 5943  25.009  23.539   5.862  0.2664  0.2621  0.2759
    1DIPC   GL2 5944  24.861  23.720   5.676 -0.0057  0.3915 -0.0811
    1DIPC   C1A 5945  25.281  23.362   5.514  0.2682 -0.1598 -0.1865
    1DIPC   D2A 5946  25.365  23.022   5.240  0.2608 -0.2567 -0.2763
    1DIPC   D3A 5947  25.116  23.201   5.008 -0.0082 -0.0204  0.0106
    1DIPC   C4A 5948  24.757  23.130   5.030  0.2983  0.3027  0.3182
    1DIPC   C1B 5949  24.846  23.562   5.341  0.1006 -0.0192  0.2283
    1DIPC   D2B 5950  24.866  23.565   4.847 -0.1910 -0.0152  0.1109
    1DIPC   D3B 5951  25.053  23.978   4.904 -0.1907  0.1780 -0.1120
    1DIPC   C4B 5952  24.965  24.356   4.687 -0.1200 -0.3100 -0.1330
    1DIPC   NC3 5953   8.553   3.770   7.266  0.0428 -0.0163 -0.0672
    1DIPC   PO4 5954   8.227   3.931   6.979 -0.1402 -0.0944  0.1957
    1DIPC   GL1 5955   8.273   3.783   6.544 -0.1460 -0.0184  0.0832
    1DIPC   GL2 5956   7.962   3.653   6.580 -0.1141 -0.3174 -0.0765
    1DIPC   C1A 5957   8.207   3.761   6.067 -0.6106 -0.2006 -0.0410
    1DIPC   D2A 5958   7.978   4.066   5.771 -0.1695  0.0884  0.1209
    1DIPC   D3A 5959   8.061   3.571   5.612 -0.0018  0.1574 -0.0241
    1DIPC   C4A 5960   7.720   3.234   5.650 -0.2107  0.0119  0.0874
    1DIPC   C1B 5961   7.781   3.955   6.249 -0.1333 -0.0974  0.1427
    1DIPC   D2B 5962   7.348   4.173   6.108  0.1293  0.3553  0.1370
    1DIPC   D3B 5963   7.124   3.903   5.812  0.2701 -0.1518 -0.0653
    1DIPC   C4B 5964   6.961   3.615   5.999  0.1920  0.2290  0.0914
    1DIPC   NC3 5965  24.478  26.345   7.129  0.1826 -0.1527  0.1950
    1DIPC   PO4 5966  24.766  26.004   6.837  0.2862 -0.2674 -0.2737
    1DIPC   GL1 5967  24.981  26.100   6.372  0.0365 -0.1379  0.0651
    1DIPC   GL2 5968  25.229  26.424   6.168 -0.1892  0.0797  0.2988
    1DIPC   C1A 5969  25.126  25.912   6.095  0.0688 -0.1854 -0.1651
    1DIPC   D2A 5970  25.438  25.607   5.958  0.2637 -0.0291 -0.0561
    1DIPC   D3A 5971  25.655  25.309   5.780  0.0051  0.0475  0.0114
    1DIPC   C4A 5972  25.813  25.381   5.373 -0.0665  0.1225  0.2082
    1DIPC   C1B 5973  25.087  26.336   5.739 -0.1417 -0.0816  0.0973
    1DIPC   D2B 5974  24.973  26.205   5.321 -0.0261 -0.3342 -0.0589
    1DIPC   D3B 5975  24.570  26.169   5.344  0.1040  0.0624  0.0541
    1DIPC   C4B 5976  24.588  25.771   5.299  0.0034 -0.2908  0.0150
    1DIPC   NC3 5977  20.457   7.901   7.228 -0.2207 -0.1948 -0.1723
    1DIPC   PO4 5978  20.644   7.897   6.871  0.1580 -0.0632  0.0484
    1DIPC   GL1 5979  20.649   7.562   6.588 -0.0384 -0.0746 -0.0425
    1DIPC   GL2 5980  20.483   7.274   6.658 -0.3331 -0.1041 -0.1422
    1DIPC   C1A 5981  20.780   7.672   6.172  0.1154  0.3138 -0.0375
    1DIPC   D2A 5982  20.846   7.853   5.807  0.2700  0.2664 -0.2750
    1DIPC   D3A 5983  20.662   7.511   5.648 -0.0566 -0.2583 -0.0541
    1DIPC   C4A 5984  20.503   7.247   5.914  0.1937  0.0137  0.1947
    1DIPC   C1B 5985  20.421   6.913   6.351  0.1004  0.1741  0.2297
    1DIPC   D2B 5986  19.970   6.723   6.332  0.0046  0.1656 -0.1134
    1DIPC   D3B 5987  19.922   6.362   6.478  0.1334  0.0816 -0.3087
    1DIPC   C4B 5988  20.053   6.058   6.152  0.0666 -0.1884  0.1659
    1DIPC   NC3 5989  22.864   0.803   6.234  0.0580 -0.2392  0.0177
    1DIPC   PO4 5990  22.493   0.744   6.562 -0.0074 -0.2437  0.2026
    1DIPC   GL1 5991  22.332   0.527   6.164  0.3093  0.0714  0.0454
    1DIPC   GL2 5992  22.253   0.648   5.844 -0.1683  0.3503  0.1539
    1DIPC   C1A 5993  22.090   0.229   5.883 -0.0820 -0.0855 -0.0292
    1DIPC   D2A 5994  21.959  -0.088   5.519  0.0850 -0.0435 -0.1919
    1DIPC   D3A 5995  21.739  -0.341   5.737 -0.0628 -0.0576  0.1470
    1DIPC   C4A 5996  21.239  -0.520   5.766  0.2586 -0.0056 -0.0446
    1DIPC   C1B 5997  22.237   0.788   5.395 -0.0889 -0.3393 -0.0147
    1DIPC   D2B 5998  22.150   0.648   4.887 -0.0173  0.1215 -0.0228
    1DIPC   D3B 5999  22.538   0.792   4.910  0.0313  0.1157  0.0590
    1DIPC   C4B 6000  22.686   0.692   4.511 -0.2185  0.0415  0.1679
    1DIPC   NC3 6001   5.828  11.943   6.546  0.0614 -0.0116 -0.1057
    1DIPC   PO4 6002   5.640  11.400   6.485 -0.2344  0.1002  0.1883
    1DIPC   GL1 6003   5.924  11.223   6.244  0.0329 -0.2615 -0.1979
    1DIPC   GL2 6004   6.240  11.132   6.447 -0.2675  0.1343 -0.0039
    1DIPC   C1A 6005   5.998  10.861   6.057 -0.1907  0.1081  0.5389
    1DIPC   D2A 6006   6.231  10.546   5.790 -0.3708  0.1818  0.0164
    1DIPC   D3A 6007   6.222  10.985   5.543 -0.0094  0.0557 -0.1944
    1DIPC   C4A 6008   6.177  11.527   5.517 -0.2818  0.0858  0.0142
    1DIPC   C1B 6009   6.497  10.988   6.040 -0.1905 -0.0331  0.0940
    1DIPC   D2B 6010   6.735  10.779   5.756 -0.0378  0.0649  0.1761
    1DIPC   D3B 6011   6.759  10.415   5.644  0.4452  0.0910  0.2123
    1DIPC   C4B 6012   6.367  10.376   5.338  0.0990  0.1062 -0.2788
    1DIPC   NC3 6013   5.906  19.054   5.953  0.0101  0.3112  0.0200
    1DIPC   PO4 6014   6.084  18.699   5.812 -0.3664  0.1695 -0.0315
    1DIPC   GL1 6015   6.235  18.590   5.513 -0.2135  0.1588 -0.0057
    1DIPC   GL2 6016   6.230  18.180   5.452 -0.0103 -0.0576 -0.0855
    1DIPC   C1A 6017   6.552  18.799   5.161 -0.0208 -0.3072 -0.1954
    1DIPC   D2A 6018   7.044  18.827   5.082  0.4613  0.0410 -0.2846
    1DIPC   D3A 6019   6.936  18.709   4.533  0.1450 -0.1407 -0.1103
    1DIPC   C4A 6020   6.810  18.452   4.214  0.2392  0.1357 -0.0468
    1DIPC   C1B 6021   6.433  18.190   5.089 -0.0970 -0.1284 -0.0994
    1DIPC   D2B 6022   6.845  18.336   5.077 -0.0201 -0.1493  0.1496
    1DIPC   D3B 6023   6.751  18.469   5.453 -0.3006  0.1683  0.0767
    1DIPC   C4B 6024   6.874  18.332   5.813 -0.2339  0.1035 -0.0334
    1DIPC   NC3 6025  25.408  20.928   5.912 -0.0350 -0.1484 -0.2407
    1DIPC   PO4 6026  25.490  20.471   5.978  0.1545  0.0083  0.2489
    1DIPC   GL1 6027  25.545  20.548   5.556  0.2794  0.1028 -0.1216
    1DIPC   GL2 6028  25.821  20.252   5.528 -0.0788 -0.2307  0.0688
    1DIPC   C1A 6029  25.480  20.722   5.030  0.2470 -0.1987 -0.1537
    1DIPC   D2A 6030  25.395  21.125   4.917  0.1039 -0.0018 -0.3075
    1DIPC   D3A 6031  25.641  21.228   4.557 -0.3027  0.1278 -0.0777
    1DIPC   C4A 6032  25.934  21.286   4.200  0.0870  0.0154 -0.0045
    1DIPC   C1B 6033  25.945  20.547   5.220  0.0233  0.1633 -0.2649
    1DIPC   D2B 6034  26.198  20.464   4.929  0.0018 -0.2262  0.1980
    1DIPC   D3B 6035  26.205  20.448   4.426 -0.0218  0.0306 -0.0124
    1DIPC   C4B 6036  25.782  20.272   4.245 -0.0009 -0.0580  0.0716
    1DIPC   NC3 6037  10.385  27.327   6.489 -0.2275  0.0321 -0.2081
    1DIPC   PO4 6038   9.987  27.457   6.516  0.0445  0.0115  0.1442
    1DIPC   GL1 6039  10.110  27.630   6.156  0.0852  0.0766  0.2123
    1DIPC   GL2 6040  10.328  27.394   6.006  0.1652 -0.2259 -0.1774
    1DIPC   C1A 6041  10.422  27.836   5.895  0.0414 -0.0185 -0.2199
    1DIPC   D2A 6042  10.452  27.768   5.482 -0.2069  0.1494  0.2173
    1DIPC   D3A 6043  10.087  28.127   5.619  0.1702 -0.0694  0.0550
    1DIPC   C4A 6044  10.051  28.197   6.076  0.1955 -0.1114 -0.0459
    1DIPC   C1B 6045  10.289  27.363   5.704  0.0628  0.2222  0.2245
    1DIPC   D2B 6046  10.209  27.372   5.213  0.0015  0.0661 -0.0336
    1DIPC   D3B 6047   9.752  27.441   5.117  0.1308 -0.1028  0.0606
    1DIPC   C4B 6048   9.688  27.274   4.677  0.0952  0.3287 -0.2194
    1DIPC   NC3 6049   6.006  26.101   6.346  0.3075  0.1000 -0.2110
    1DIPC   PO4 6050   6.221  25.887   6.041  0.1492 -0.1090  0.1948
    1DIPC   GL1 6051   6.075  26.013   5.572  0.1366  0.0319 -0.3377
    1DIPC   GL2 6052   6.380  25.811   5.527 -0.0455 -0.0781  0.3572
    1DIPC   C1A 6053   6.057  25.965   5.093 -0.0178 -0.1952  0.1789
    1DIPC   D2A 6054   5.861  26.091   4.683  0.0362  0.1593  0.2662
    1DIPC   D3A 6055   6.247  26.064   4.526  0.2435 -0.1473  0.0244
    1DIPC   C4A 6056   6.438  26.486   4.534  0.0766 -0.2367  0.1328
    1DIPC   C1B 6057   6.688  25.519   5.402 -0.1608  0.1147  0.0047
    1DIPC   D2B 6058   6.888  25.347   5.099  0.1958  0.2984 -0.0795
    1DIPC   D3B 6059   7.255  25.372   4.674  0.3590 -0.0311  0.2458
    1DIPC   C4B 6060   6.966  25.574   4.282 -0.4050 -0.1085  0.0780
    1DIPC   NC3 6061  27.466  25.075   6.474 -0.0405  0.3315  0.1937
    1DIPC   PO4 6062  27.352  25.483   6.341 -0.0492 -0.0300 -0.0088
    1DIPC   GL1 6063  27.210  25.505   5.879 -0.0012 -0.1908 -0.2560
    1DIPC   GL2 6064  26.988  25.782   5.895 -0.1557  0.1840 -0.1266
    1DIPC   C1A 6065  27.272  25.363   5.467  0.1590 -0.1313  0.0910
    1DIPC   D2A 6066  27.148  25.100   5.261 -0.1680 -0.2912 -0.3372
    1DIPC   D3A 6067  27.244  25.393   4.952 -0.1491  0.1326 -0.1350
    1DIPC   C4A 6068  27.538  25.586   4.703  0.0207  0.1165 -0.1267
    1DIPC   C1B 6069  26.685  26.000   5.486  0.1971  0.1954 -0.1957
    1DIPC   D2B 6070  26.494  26.138   5.174 -0.1049 -0.0532  0.1399
    1DIPC   D3B 6071  26.458  25.776   4.952  0.1332 -0.1253  0.0143
    1DIPC   C4B 6072  26.819  25.597   4.718 -0.3370  0.0178 -0.2064
    1DIPC   NC3 6073  21.144  28.732   6.238 -0.0883 -0.0837  0.2575
    1DIPC   PO4 6074  20.724  28.512   6.260 -0.2123  0.0122  0.2496
    1DIPC   GL1 6075  20.841  28.720   5.834 -0.4119 -0.2200  0.1953
    1DIPC   GL2 6076  21.173  28.841   5.728  0.2543  0.1382  0.0753
    1DIPC   C1A 6077  20.817  28.743   5.388  0.1327  0.0055 -0.1642
    1DIPC   D2A 6078  20.847  28.646   5.019 -0.3628 -0.1178  0.0179
    1DIPC   D3A 6079  21.190  28.854   4.946  0.1869  0.0408 -0.0123
    1DIPC   C4A 6080  21.400  28.651   5.223  0.0052  0.1994 -0.4114
    1DIPC   C1B 6081  21.151  29.192   5.370 -0.0328  0.0205 -0.0223
    1DIPC   D2B 6082  21.288  29.366   5.043 -0.1044  0.0774 -0.0807
    1DIPC   D3B 6083  21.566  29.538   4.737 -0.0867  0.0258 -0.0024
    1DIPC   C4B 6084  21.906  29.750   4.881  0.2418 -0.2558  0.1592
    1DIPC   NC3 6085   8.390   1.032   7.466  0.5576  0.1283  0.2975
    1DIPC   PO4 6086   8.421   1.068   6.990 -0.1969 -0.5075 -0.1312
    1DIPC   GL1 6087   8.497   1.007   6.502 -0.2316  0.2307  0.2964
    1DIPC   GL2 6088   8.579   1.259   6.229 -0.1058  0.2308  0.1668
    1DIPC   C1A 6089   8.315   0.822   6.149  0.2038  0.0006 -0.0423
    1DIPC   D2A 6090   7.918   0.838   5.934  0.3719  0.3584 -0.0354
    1DIPC   D3A 6091   7.637   0.677   5.628  0.0859  0.0988 -0.0082
    1DIPC   C4A 6092   7.767   0.295   5.536  0.1855  0.0195  0.0167
    1DIPC   C1B 6093   8.860   1.368   5.872 -0.0154  0.1975 -0.0945
    1DIPC   D2B 6094   9.061   1.234   5.487 -0.4263 -0.0063  0.1151
    1DIPC   D3B 6095   8.943   0.916   5.151  0.2978 -0.0073 -0.1116
    1DIPC   C4B 6096   8.530   0.923   5.017  0.1109  0.1296 -0.1496
    1DIPC   NC3 6097   5.207   2.550   7.108  0.0135  0.2792 -0.0643
    1DIPC   PO4 6098   4.982   2.179   6.977  0.2998  0.2323  0.0154
    1DIPC   GL1 6099   5.124   2.114   6.624 -0.3069 -0.1353 -0.2260
    1DIPC   GL2 6100   5.321   1.786   6.531 -0.0043  0.0180  0.2406
    1DIPC   C1A 6101   4.832   1.982   6.245  0.0827  0.2185  0.3217
    1DIPC   D2A 6102   4.907   1.792   5.821 -0.0935 -0.1038 -0.0646
    1DIPC   D3A 6103   5.043   1.448   6.004  0.1734  0.2508  0.0096
    1DIPC   C4A 6104   4.859   1.076   5.931 -0.0616  0.0624 -0.0429
    1DIPC   C1B 6105   5.519   1.573   6.150  0.3551  0.0091  0.1236
    1DIPC   D2B 6106   5.964   1.547   6.056  0.2228  0.1262  0.0351
    1DIPC   D3B 6107   5.946   1.749   5.615  0.1223  0.1800  0.2417
    1DIPC   C4B 6108   5.888   1.476   5.334 -0.0145 -0.1615 -0.0089
    1DIPC   NC3 6109   0.083  12.329   5.955 -0.1261  0.1178 -0.0650
    1DIPC   PO4 6110  -0.184  12.548   5.673  0.2126 -0.1541  0.2546
    1DIPC   GL1 6111  -0.287  12.453   5.314  0.3684  0.0104 -0.0042
    1DIPC   GL2 6112  -0.535  12.352   5.339  0.1459 -0.0378  0.2710
    1DIPC   C1A 6113  -0.251  12.365   4.898  0.1997 -0.0744 -0.1553
    1DIPC   D2A 6114  -0.233  12.051   4.732  0.0223  0.2669  0.0056
    1DIPC   D3A 6115  -0.016  11.817   4.417 -0.0084 -0.1067 -0.2046
    1DIPC   C4A 6116   0.495  11.673   4.561  0.3506 -0.1076  0.1758
    1DIPC   C1B 6117  -0.685  12.084   5.004 -0.2494  0.4784  0.2335
    1DIPC   D2B 6118  -1.134  12.138   4.809  0.2420 -0.1450  0.0740
    1DIPC   D3B 6119  -0.813  11.794   4.626 -0.0841  0.1450 -0.3232
    1DIPC   C4B 6120  -0.528  11.795   4.326  0.2714  0.3308  0.0240
    1DIPC   NC3 6121   2.667  22.169   5.374 -0.0528 -0.0461 -0.1923
    1DIPC   PO4 6122   2.509  22.083   5.113  0.1566  0.1441 -0.1876
    1DIPC   GL1 6123   2.626  22.277   4.739  0.0447 -0.1625 -0.0266
    1DIPC   GL2 6124   2.619  22.547   4.762  0.0296  0.1001 -0.1614
    1DIPC   C1A 6125   2.620  22.395   4.319  0.0126  0.0513 -0.3553
    1DIPC   D2A 6126   2.671  22.237   3.888 -0.0850 -0.0549 -0.0013
    1DIPC   D3A 6127   2.998  22.471   3.629 -0.0322  0.1170  0.3325
    1DIPC   C4A 6128   2.928  22.530   3.225 -0.0815  0.0299 -0.1098
    1DIPC   C1B 6129   2.714  22.880   4.468 -0.0451 -0.3350 -0.0324
    1DIPC   D2B 6130   2.806  22.747   4.095  0.1139 -0.1285 -0.1893
    1DIPC   D3B 6131   2.678  23.200   4.076 -0.2441 -0.2029  0.2123
    1DIPC   C4B 6132   2.891  23.467   3.729  0.0078  0.4470 -0.1726
    1DIPC   NC3 6133   0.077   9.653   5.820  0.1435  0.0613 -0.1791
    1DIPC   PO4 6134   0.111   9.214   6.042 -0.0890  0.1231 -0.1658
    1DIPC   GL1 6135   0.531   9.218   5.833 -0.1837  0.0051  0.1515
    1DIPC   GL2 6136   0.639   9.477   5.658  0.0296  0.0957 -0.2458
    1DIPC   C1A 6137   0.688   9.053   5.347  0.1179 -0.0961 -0.1792
    1DIPC   D2A 6138   0.795   9.188   4.962  0.0750 -0.1526  0.1849
    1DIPC   D3A 6139   0.837   9.258   4.440 -0.1349 -0.0039 -0.0186
    1DIPC   C4A 6140   1.020   9.022   4.093  0.1720 -0.3647 -0.1327
    1DIPC   C1B 6141   0.507   9.541   5.330 -0.1881  0.0927 -0.4183
    1DIPC   D2B 6142   0.315   9.293   4.985  0.2262 -0.0257  0.3681
    1DIPC   D3B 6143   0.459   9.539   4.632 -0.1337 -0.0790 -0.3103
    1DIPC   C4B 6144   0.258   9.710   4.243  0.0004 -0.1045 -0.1901
    1DIPC   NC3 6145  26.132  29.016   6.702 -0.2049  0.2707  0.1231
    1DIPC   PO4 6146  26.503  29.098   6.367  0.2003 -0.1067 -0.2847
    1DIPC   GL1 6147  26.332  29.213   6.055  0.2400 -0.0233 -0.0534
    1DIPC   GL2 6148  26.403  29.040   5.765 -0.3646 -0.0970 -0.2483
    1DIPC   C1A 6149  26.316  29.513   5.608  0.4653  0.4184 -0.1412
    1DIPC   D2A 6150  26.433  29.890   5.431 -0.3478  0.1334  0.0437
    1DIPC   D3A 6151  26.288  30.055   5.002  0.0345 -0.1651 -0.0280
    1DIPC   C4A 6152  26.321  30.149   4.630 -0.0987 -0.0395 -0.1658
    1DIPC   C1B 6153  26.123  29.055   5.426  0.4752 -0.1898 -0.1383
    1DIPC   D2B 6154  26.154  28.670   5.149  0.1964 -0.0473  0.0964
    1DIPC   D3B 6155  26.292  29.004   4.868 -0.2490 -0.3273 -0.0185
    1DIPC   C4B 6156  26.530  28.755   4.544  0.0005  0.2059  0.0215
    1DIPC   NC3 6157   1.123  12.454   5.873  0.2523 -0.2595  0.0410
    1DIPC   PO4 6158   1.314  12.786   5.758  0.0838 -0.2578  0.2841
    1DIPC   GL1 6159   1.544  12.887   5.381  0.2090 -0.1550  0.1371
    1DIPC   GL2 6160   1.703  12.665   5.183  0.0237  0.0345  0.2453
    1DIPC   C1A 6161   1.635  13.133   5.018 -0.2261 -0.1195  0.2210
    1DIPC   D2A 6162   1.491  12.976   4.640 -0.0351 -0.1832  0.0152
    1DIPC   D3A 6163   1.224  13.283   4.747 -0.1355 -0.2171 -0.2298
    1DIPC   C4A 6164   0.797  13.237   4.963  0.2337 -0.1139 -0.1459
    1DIPC   C1B 6165   1.422  12.512   4.890  0.0733  0.1423 -0.0266
    1DIPC   D2B 6166   1.470  12.200   4.601  0.1330 -0.0729  0.0849
    1DIPC   D3B 6167   1.960  12.188   4.411  0.1448 -0.2320 -0.3939
    1DIPC   C4B 6168   1.932  12.306   4.021  0.0960  0.3028  0.0057
    1DIPC   NC3 6169  29.615  28.397   7.090 -0.0007  0.1053 -0.0160
    1DIPC   PO4 6170  30.037  28.275   7.036 -0.1706  0.1598 -0.3025
    1DIPC   GL1 6171  29.977  28.574   6.616  0.0011  0.1258 -0.2629
    1DIPC   GL2 6172  30.284  28.559   6.500  0.1799 -0.2027 -0.2426
    1DIPC   C1A 6173  29.793  28.369   6.247  0.2081  0.0450 -0.5368
    1DIPC   D2A 6174  29.868  28.477   5.749  0.0343  0.0008  0.1182
    1DIPC   D3A 6175  29.438  28.597   5.529  0.0700  0.0207  0.0572
    1DIPC   C4A 6176  29.613  28.647   5.118 -0.3230  0.3006  0.0921
    1DIPC   C1B 6177  30.250  28.627   6.089 -0.1201  0.3250 -0.1622
    1DIPC   D2B 6178  30.471  28.487   5.624  0.0383 -0.2850  0.1261
    1DIPC   D3B 6179  30.702  28.338   5.940  0.2050 -0.1394  0.1246
    1DIPC   C4B 6180  30.877  27.890   5.995  0.3340 -0.2506 -0.1881
    1DIPC   NC3 6181   6.156  13.103   7.769  0.1131  0.0712 -0.1665
    1DIPC   PO4 6182   6.190  13.021   7.337 -0.4466 -0.2744  0.1414
    1DIPC   GL1 6183   6.391  12.856   7.014  0.1220  0.5477 -0.1329
    1DIPC   GL2 6184   6.126  12.850   6.778 -0.3194  0.2133  0.1436
    1DIPC   C1A 6185   6.721  12.861   6.565 -0.0683 -0.2721  0.0961
    1DIPC   D2A 6186   6.889  12.883   6.097  0.0141  0.3696  0.1691
    1DIPC   D3A 6187   7.223  13.088   6.108  0.1647 -0.2555 -0.0073
    1DIPC   C4A 6188   7.156  13.427   5.939  0.0093 -0.1220  0.1733
    1DIPC   C1B 6189   6.078  12.652   6.360  0.1412 -0.0362  0.0826
    1DIPC   D2B 6190   6.038  12.281   6.293 -0.0492  0.3807  0.3493
    1DIPC   D3B 6191   6.170  11.916   6.175  0.1009  0.1759  0.0610
    1DIPC   C4B 6192   6.530  11.937   5.961 -0.2532  0.0054  0.0429
    1DIPC   NC3 6193   3.059  15.611   5.921  0.0596 -0.0530  0.1626
    1DIPC   PO4 6194   3.493  15.763   6.145  0.0422 -0.1804  0.1817
    1DIPC   GL1 6195   3.582  15.424   5.820 -0.0322  0.2865 -0.1459
    1DIPC   GL2 6196   3.603  15.111   5.886  0.0630  0.0660 -0.1760
    1DIPC   C1A 6197   3.715  15.510   5.417 -0.0201 -0.0229 -0.2540
    1DIPC   D2A 6198   3.937  15.333   5.127 -0.0305 -0.0446  0.1785
    1DIPC   D3A 6199   3.686  15.386   4.871  0.0707  0.1554 -0.0060
    1DIPC   C4A 6200   3.230  15.235   4.742  0.1316  0.0997 -0.0072
    1DIPC   C1B 6201   3.548  14.921   5.553 -0.2273 -0.0256 -0.0911
    1DIPC   D2B 6202   3.449  15.024   5.136 -0.2503 -0.1121 -0.0263
    1DIPC   D3B 6203   3.756  14.785   4.835 -0.1978  0.1000  0.0936
    1DIPC   C4B 6204   4.011  14.689   4.512  0.2329 -0.0706  0.2327
    1DIPC   NC3 6205  22.454  22.192   6.447 -0.1592  0.2584 -0.1339
    1DIPC   PO4 6206  22.169  22.439   6.316  0.1612  0.1166  0.2639
    1DIPC   GL1 6207  22.286  22.415   5.964 -0.2334 -0.0178  0.1124
    1DIPC   GL2 6208  22.088  22.274   5.736 -0.0462  0.0525  0.0208
    1DIPC   C1A 6209  22.562  22.489   5.550 -0.0836  0.0757  0.0625
    1DIPC   D2A 6210  22.831  22.627   5.264  0.2721  0.1108  0.0225
    1DIPC   D3A 6211  22.939  22.693   4.800  0.0211  0.0075  0.1101
    1DIPC   C4A 6212  23.160  22.532   4.508  0.0540  0.1260  0.0450
    1DIPC   C1B 6213  22.155  22.267   5.254  0.1912 -0.0120 -0.3106
    1DIPC   D2B 6214  21.990  22.490   4.912 -0.0489  0.0827 -0.1918
    1DIPC   D3B 6215  22.493  22.521   4.834  0.2444  0.0752 -0.0524
    1DIPC   C4B 6216  22.612  22.186   5.074  0.0312 -0.1090 -0.0953
    1DIPC   NC3 6217  19.698  29.341   6.534 -0.0420  0.1289  0.1678
    1DIPC   PO4 6218  20.226  29.155   6.607  0.1015  0.1938  0.0646
    1DIPC   GL1 6219  20.035  29.138   6.173  0.0077  0.0544  0.0246
    1DIPC   GL2 6220  20.013  29.477   5.995  0.0168 -0.0160 -0.0201
    1DIPC   C1A 6221  19.916  29.071   5.759 -0.0643 -0.0194  0.3654
    1DIPC   D2A 6222  20.194  29.146   5.455 -0.1120  0.0432 -0.4110
    1DIPC   D3A 6223  20.382  29.658   5.416 -0.0984 -0.0861 -0.1903
    1DIPC   C4A 6224  20.612  29.933   5.046  0.1660  0.0134 -0.0679
    1DIPC   C1B 6225  19.947  29.557   5.512 -0.2829 -0.0298  0.0591
    1DIPC   D2B 6226  19.976  29.776   5.134 -0.0071  0.0854  0.1046
    1DIPC   D3B 6227  20.319  29.418   4.976  0.3373 -0.3634  0.0703
    1DIPC   C4B 6228  20.503  29.016   4.861 -0.0640  0.2785  0.1754
    1DIPC   NC3 6229   5.443   4.001   7.136 -0.0187 -0.0177 -0.4450
    1DIPC   PO4 6230   5.793   4.226   6.951 -0.2028 -0.4609  0.0602
    1DIPC   GL1 6231   5.966   4.400   6.630 -0.3038 -0.3409  0.1782
    1DIPC   GL2 6232   6.050   4.749   6.663 -0.2473 -0.0018  0.0608
    1DIPC   C1A 6233   6.022   4.350   6.154  0.2104  0.1460 -0.0026
    1DIPC   D2A 6234   6.197   4.249   5.699  0.3362  0.0462 -0.0108
    1DIPC   D3A 6235   6.549   4.511   5.507  0.1172  0.3543  0.0834
    1DIPC   C4A 6236   6.497   4.720   5.129 -0.0753 -0.0412 -0.0714
    1DIPC   C1B 6237   6.170   4.887   6.312  0.0003 -0.0152  0.2823
    1DIPC   D2B 6238   6.248   4.793   5.837 -0.2048 -0.1600  0.3061
    1DIPC   D3B 6239   5.882   4.642   5.771 -0.0859 -0.1757  0.0204
    1DIPC   C4B 6240   5.668   4.426   5.376 -0.0312 -0.3589 -0.0400
    1DIPC   NC3 6241  16.572  27.860   6.652 -0.3528 -0.0304 -0.0873
    1DIPC   PO4 6242  16.772  27.492   6.729 -0.2350  0.0687  0.2494
    1DIPC   GL1 6243  16.845  27.587   6.279 -0.3185  0.2221 -0.1996
    1DIPC   GL2 6244  17.097  27.605   6.192 -0.0211  0.1833  0.2961
    1DIPC   C1A 6245  16.793  27.738   5.844 -0.2342  0.2594  0.0700
    1DIPC   D2A 6246  16.989  27.653   5.456 -0.0255  0.2268 -0.1835
    1DIPC   D3A 6247  16.640  27.398   5.379 -0.1051 -0.3077 -0.5882
    1DIPC   C4A 6248  16.568  27.693   4.910  0.0470 -0.0454  0.0079
    1DIPC   C1B 6249  17.480  27.840   5.853  0.4537 -0.0098 -0.3402
    1DIPC   D2B 6250  17.612  27.789   5.391 -0.1140  0.2242  0.0959
    1DIPC   D3B 6251  17.337  27.601   5.066  0.0096 -0.0001  0.1683
    1DIPC   C4B 6252  17.472  27.548   4.605  0.0800 -0.1344  0.3022
    1DIPC   NC3 6253   3.729   4.851   6.966  0.0760 -0.1252 -0.0482
    1DIPC   PO4 6254   4.040   4.570   6.672 -0.0785  0.0455 -0.1852
    1DIPC   GL1 6255   4.356   4.386   6.400  0.0513  0.0380 -0.2883
    1DIPC   GL2 6256   4.587   4.209   6.473  0.2346 -0.2887  0.1004
    1DIPC   C1A 6257   4.540   4.282   5.951  0.1922  0.1833  0.2380
    1DIPC   D2A 6258   4.682   4.121   5.513  0.0393  0.1258 -0.0521
    1DIPC   D3A 6259   4.826   3.718   5.425 -0.2104 -0.2266 -0.3395
    1DIPC   C4A 6260   4.962   3.605   5.031  0.0181  0.0287  0.1293
    1DIPC   C1B 6261   4.902   4.071   6.239  0.2383 -0.0435  0.3090
    1DIPC   D2B 6262   5.010   3.901   5.864  0.1174 -0.0060  0.0627
    1DIPC   D3B 6263   5.196   4.127   5.562 -0.0108 -0.1270 -0.0347
    1DIPC   C4B 6264   5.283   4.043   5.252  0.2093  0.1509  0.2642
    1DIPC   NC3 6265  27.494  28.900   6.971  0.0446 -0.0557 -0.2381
    1DIPC   PO4 6266  27.399  28.737   6.620 -0.1685 -0.3693 -0.0592
    1DIPC   GL1 6267  27.249  28.679   6.222 -0.0939  0.0274 -0.2953
    1DIPC   GL2 6268  27.402  28.946   6.147 -0.1088  0.0901  0.1661
    1DIPC   C1A 6269  27.083  28.502   5.851  0.0605  0.1876  0.0622
    1DIPC   D2A 6270  26.944  28.328   5.373 -0.2308  0.0414 -0.5989
    1DIPC   D3A 6271  26.724  28.192   5.039  0.4201  0.3961  0.0116
    1DIPC   C4A 6272  26.542  28.436   4.943 -0.1836  0.0987  0.1994
    1DIPC   C1B 6273  27.286  29.070   5.741 -0.1279 -0.0649 -0.0334
    1DIPC   D2B 6274  26.922  29.334   5.641 -0.0668 -0.0379 -0.2718
    1DIPC   D3B 6275  27.131  29.195   5.293 -0.0060 -0.0926  0.3368
    1DIPC   C4B 6276  26.884  28.790   5.072 -0.0387  0.1035  0.3708
    1DIPC   NC3 6277  13.049  29.667   7.534 -0.0394  0.2630 -0.0794
    1DIPC   PO4 6278  12.772  29.991   7.392 -0.1212 -0.0454 -0.0721
    1DIPC   GL1 6279  12.749  30.217   6.997 -0.0905 -0.0340 -0.0510
    1DIPC   GL2 6280  12.746  29.940   6.828  0.0072 -0.3007 -0.0677
    1DIPC   C1A 6281  12.971  30.322   6.625  0.2299  0.2893 -0.0151
    1DIPC   D2A 6282  13.189  30.530   6.327 -0.0276  0.1140  0.2933
    1DIPC   D3A 6283  12.936  30.896   6.075  0.0546 -0.1318  0.4128
    1DIPC   C4A 6284  13.024  31.221   5.884 -0.0058  0.0895 -0.0568
    1DIPC   C1B 6285  12.913  29.926   6.340  0.0511 -0.2526 -0.0926
    1DIPC   D2B 6286  12.950  29.845   5.983  0.0985 -0.1085  0.2206
    1DIPC   D3B 6287  12.728  29.756   5.555 -0.0027 -0.0897  0.0997
    1DIPC   C4B 6288  12.905  29.579   5.226  0.1458  0.0502  0.1919
    1DIPC   NC3 6289   6.960   1.206   7.657 -0.2706 -0.0348 -0.2167
    1DIPC   PO4 6290   6.968   1.204   7.242  0.2604  0.1887 -0.0336
    1DIPC   GL1 6291   6.842   0.930   6.770 -0.0864 -0.1705  0.1496
    1DIPC   GL2 6292   6.906   1.280   6.623  0.0675 -0.5029  0.0335
    1DIPC   C1A 6293   6.894   0.792   6.319 -0.3267  0.2025  0.0247
    1DIPC   D2A 6294   6.747   0.848   5.867 -0.0025 -0.1983 -0.2458
    1DIPC   D3A 6295   6.798   0.505   5.723 -0.0909  0.4766 -0.0402
    1DIPC   C4A 6296   6.397   0.362   5.540  0.0881 -0.1392  0.3765
    1DIPC   C1B 6297   6.739   1.368   6.231 -0.0036  0.1267  0.1158
    1DIPC   D2B 6298   6.759   1.385   5.776  0.1390 -0.2412  0.3691
    1DIPC   D3B 6299   6.456   1.304   5.492 -0.0067  0.1563 -0.0647
    1DIPC   C4B 6300   6.723   0.825   5.294  0.0974  0.1296  0.2080
    1DIPC   NC3 6301  10.188   6.496   7.234  0.0839 -0.2627 -0.0538
    1DIPC   PO4 6302  10.683   6.643   7.323 -0.0629  0.0494  0.2874
    1DIPC   GL1 6303  11.027   6.512   7.024 -0.2109 -0.0633  0.1492
    1DIPC   GL2 6304  11.248   6.246   6.901 -0.1417  0.0931 -0.1740
    1DIPC   C1A 6305  10.967   6.496   6.534  0.1819 -0.2477  0.1612
    1DIPC   D2A 6306  10.942   6.426   6.050 -0.1534 -0.3018  0.0541
    1DIPC   D3A 6307  11.169   6.294   5.678  0.5168 -0.0088  0.0234
    1DIPC   C4A 6308  11.711   6.501   5.576 -0.0268 -0.1261 -0.0480
    1DIPC   C1B 6309  10.877   6.038   6.684 -0.1690  0.1376  0.1761
    1DIPC   D2B 6310  10.546   6.203   6.372  0.0230  0.2141 -0.2949
    1DIPC   D3B 6311  10.544   5.768   6.346  0.0125 -0.1864 -0.1141
    1DIPC   C4B 6312  10.876   5.521   6.456 -0.1218 -0.0210  0.0659
    1DIPC   NC3 6313   7.167  23.028   5.648 -0.1179 -0.0003  0.1764
    1DIPC   PO4 6314   7.389  22.620   5.473 -0.1762 -0.0962 -0.0097
    1DIPC   GL1 6315   7.508  22.811   5.182  0.4112 -0.3105 -0.1146
    1DIPC   GL2 6316   7.286  23.119   5.151  0.0465  0.0337 -0.0306
    1DIPC   C1A 6317   7.408  22.939   4.734  0.1991 -0.1675  0.0004
    1DIPC   D2A 6318   7.292  23.078   4.321 -0.1213  0.0732 -0.0821
    1DIPC   D3A 6319   7.448  22.878   3.937 -0.0417  0.1893  0.0100
    1DIPC   C4A 6320   7.243  23.044   3.537  0.2351 -0.1898 -0.1610
    1DIPC   C1B 6321   7.100  23.392   4.731 -0.0888 -0.0210 -0.1746
    1DIPC   D2B 6322   6.810  23.559   4.428  0.3520  0.0710 -0.1129
    1DIPC   D3B 6323   6.965  23.913   4.188 -0.0716 -0.1182 -0.1132
    1DIPC   C4B 6324   6.908  24.402   4.347 -0.0075  0.0193 -0.1968
    1DIPC   NC3 6325  28.255  20.659   5.314  0.1511  0.0997  0.2091
    1DIPC   PO4 6326  28.492  20.355   5.364 -0.0622 -0.0781 -0.2425
    1DIPC   GL1 6327  28.460  20.326   4.957  0.0686 -0.1307 -0.1579
    1DIPC   GL2 6328  28.668  20.541   4.915  0.0687 -0.0248  0.1174
    1DIPC   C1A 6329  28.408  20.003   4.725  0.3514 -0.1609  0.1333
    1DIPC   D2A 6330  28.697  19.806   4.480  0.0499 -0.3509 -0.1015
    1DIPC   D3A 6331  28.761  19.322   4.558 -0.0760 -0.1680  0.0265
    1DIPC   C4A 6332  28.783  19.139   4.122  0.0591  0.1641 -0.1913
    1DIPC   C1B 6333  28.674  20.398   4.529 -0.0883  0.2287 -0.2748
    1DIPC   D2B 6334  28.567  20.285   4.048  0.1914  0.1245 -0.1532
    1DIPC   D3B 6335  28.220  20.140   4.258  0.1758 -0.1930  0.0371
    1DIPC   C4B 6336  28.002  20.363   4.128  0.1977 -0.0027 -0.0712
    1DIPC   NC3 6337   0.969  23.702   5.729 -0.1365 -0.1103  0.3059
    1DIPC   PO4 6338   1.147  23.382   5.478 -0.4014 -0.0517  0.1788
    1DIPC   GL1 6339   0.977  23.200   5.021  0.0066  0.2157  0.0829
    1DIPC   GL2 6340   0.631  23.124   5.006 -0.1745 -0.0900 -0.1766
    1DIPC   C1A 6341   0.964  22.922   4.616  0.0720  0.0983 -0.0714
    1DIPC   D2A 6342   0.797  22.684   4.192 -0.0587  0.0595 -0.1749
    1DIPC   D3A 6343   0.825  22.812   3.774 -0.2981 -0.1200 -0.0382
    1DIPC   C4A 6344   1.065  22.785   3.402 -0.2804 -0.1775 -0.0063
    1DIPC   C1B 6345   0.208  23.207   5.052  0.1688  0.0666 -0.1820
    1DIPC   D2B 6346  -0.237  23.070   5.015 -0.2646  0.0032 -0.0317
    1DIPC   D3B 6347  -0.160  22.963   4.587  0.2581 -0.0515  0.0212
    1DIPC   C4B 6348  -0.484  22.675   4.261 -0.2073 -0.2491 -0.2860
    1DIPC   NC3 6349   3.037   0.186   7.357  0.0669  0.5696 -0.0071
    1DIPC   PO4 6350   2.875  -0.175   7.363  0.2040  0.2350 -0.0380
    1DIPC   GL1 6351   2.786   0.051   6.978  0.1040  0.0374 -0.0345
    1DIPC   GL2 6352   2.761   0.312   6.788 -0.1320 -0.1915  0.1220
    1DIPC   C1A 6353   2.725  -0.057   6.456  0.0014 -0.0327  0.1372
    1DIPC   D2A 6354   2.479  -0.170   6.174 -0.3270  0.1755 -0.1841
    1DIPC   D3A 6355   2.855  -0.147   5.939 -0.3034  0.2273 -0.0154
    1DIPC   C4A 6356   3.074  -0.548   5.866 -0.1351 -0.2927  0.0203
    1DIPC   C1B 6357   3.206   0.072   6.605  0.2428  0.2827 -0.2124
    1DIPC   D2B 6358   3.356  -0.261   6.260  0.0243 -0.0167  0.1909
    1DIPC   D3B 6359   3.592  -0.258   5.893  0.1351  0.3184 -0.2336
    1DIPC   C4B 6360   3.430  -0.448   5.431  0.4198  0.0829 -0.3214
    1DIPC   NC3 6361  28.005  16.356   5.296  0.1631 -0.2342  0.0753
    1DIPC   PO4 6362  27.926  15.912   5.265 -0.1395  0.2749  0.0537
    1DIPC   GL1 6363  27.681  16.087   4.968  0.0065 -0.3161 -0.0152
    1DIPC   GL2 6364  27.392  16.287   5.036 -0.2657 -0.0129  0.1216
    1DIPC   C1A 6365  27.658  16.033   4.437  0.1149  0.2955 -0.2380
    1DIPC   D2A 6366  27.277  15.805   4.248 -0.4377 -0.2521  0.2621
    1DIPC   D3A 6367  27.462  16.076   3.944 -0.0707  0.2118 -0.1144
    1DIPC   C4A 6368  27.766  16.323   3.802 -0.1620  0.1075 -0.0142
    1DIPC   C1B 6369  27.264  16.431   4.641 -0.1238  0.1433 -0.1331
    1DIPC   D2B 6370  26.874  16.637   4.422 -0.1352 -0.1555 -0.0153
    1DIPC   D3B 6371  27.176  16.495   4.088  0.2150 -0.0624 -0.2890
    1DIPC   C4B 6372  27.401  16.630   3.810 -0.2900  0.1205 -0.2158
    1DIPC   NC3 6373  23.627   4.709   7.377  0.2558  0.0651  0.3654
    1DIPC   PO4 6374  23.464   4.596   6.915 -0.1419  0.3215 -0.0745
    1DIPC   GL1 6375  23.275   4.812   6.455 -0.2524  0.1060 -0.1970
    1DIPC   GL2 6376  23.267   4.603   6.131  0.3413  0.2968 -0.1759
    1DIPC   C1A 6377  23.260   5.085   6.170  0.1959 -0.5401 -0.2529
    1DIPC   D2A 6378  23.498   5.362   5.912  0.0143  0.0636  0.2569
    1DIPC   D3A 6379  23.516   5.819   5.834  0.1262  0.1646  0.0568
    1DIPC   C4A 6380  23.242   5.933   5.359  0.1076  0.2204  0.0366
    1DIPC   C1B 6381  23.298   4.693   5.749  0.0941 -0.0474  0.1198
    1DIPC   D2B 6382  23.313   4.485   5.400 -0.0729  0.3130  0.2875
    1DIPC   D3B 6383  23.067   4.834   5.354  0.0835  0.0809 -0.0978
    1DIPC   C4B 6384  22.647   4.787   5.132  0.2603 -0.1248  0.1863
    1DIPC   NC3 6385  22.203   2.759   6.381  0.1707 -0.2211 -0.0070
    1DIPC   PO4 6386  22.527   2.408   6.505 -0.1163  0.2221 -0.0907
    1DIPC   GL1 6387  22.544   2.473   6.081  0.0328  0.2442 -0.0293
    1DIPC   GL2 6388  22.125   2.422   6.048 -0.1094 -0.0060  0.1684
    1DIPC   C1A 6389  22.702   2.210   5.734  0.5136 -0.0428 -0.2537
    1DIPC   D2A 6390  22.857   1.816   5.791  0.1411 -0.1602 -0.0441
    1DIPC   D3A 6391  22.605   1.771   5.549 -0.1254  0.2077  0.0607
    1DIPC   C4A 6392  22.111   1.846   5.509  0.3155  0.1367  0.0585
    1DIPC   C1B 6393  21.769   2.240   5.840  0.1783 -0.4226  0.0658
    1DIPC   D2B 6394  21.790   2.147   5.401  0.1735 -0.3894 -0.0480
    1DIPC   D3B 6395  21.927   2.406   5.140 -0.2392  0.0877  0.0317
    1DIPC   C4B 6396  21.873   2.826   5.033  0.1410  0.0795 -0.1076
    1DIPC   NC3 6397  15.819   7.572   7.529 -0.1102  0.1052  0.0117
    1DIPC   PO4 6398  15.870   7.981   7.577  0.0135 -0.2578 -0.1149
    1DIPC   GL1 6399  15.818   7.941   7.209  0.0023  0.3251  0.0354
    1DIPC   GL2 6400  16.103   7.971   6.827  0.0198 -0.0138 -0.4944
    1DIPC   C1A 6401  15.506   7.990   6.741 -0.0862  0.0108  0.0177
    1DIPC   D2A 6402  15.054   7.906   6.700  0.2377 -0.0170 -0.1084
    1DIPC   D3A 6403  15.097   7.713   6.379 -0.0727  0.1653 -0.3648
    1DIPC   C4A 6404  15.523   7.617   6.290 -0.1304 -0.2574 -0.0555
    1DIPC   C1B 6405  16.021   7.559   6.839  0.1434 -0.2771  0.0897
    1DIPC   D2B 6406  15.772   7.270   7.017 -0.0423 -0.2405 -0.0567
    1DIPC   D3B 6407  15.490   7.458   6.775  0.3393 -0.2449 -0.3009
    1DIPC   C4B 6408  15.058   7.360   6.883  0.2496  0.2188 -0.1276
    1DIPC   NC3 6409   3.533  26.543   6.262 -0.3801 -0.0768 -0.3070
    1DIPC   PO4 6410   3.918  26.334   6.228 -0.1317 -0.0105  0.3382
    1DIPC   GL1 6411   3.926  26.270   5.904 -0.2951  0.2598 -0.1802
    1DIPC   GL2 6412   4.268  26.348   5.753  0.1174 -0.0151 -0.0263
    1DIPC   C1A 6413   3.812  26.349   5.426 -0.2058  0.1883 -0.2246
    1DIPC   D2A 6414   3.846  26.388   4.984 -0.1657  0.2001  0.4826
    1DIPC   D3A 6415   3.797  26.694   4.596  0.1376  0.1842 -0.2607
    1DIPC   C4A 6416   3.540  26.601   4.344  0.1202  0.1602  0.2753
    1DIPC   C1B 6417   4.361  26.778   5.726  0.1729  0.0185 -0.1114
    1DIPC   D2B 6418   4.594  27.053   5.638  0.0856 -0.0432  0.3009
    1DIPC   D3B 6419   4.953  27.138   5.898 -0.0341 -0.1490 -0.0471
    1DIPC   C4B 6420   5.314  27.327   5.787 -0.2962 -0.1969 -0.0411
    1DIPC   NC3 6421  14.244   8.706   7.600  0.0253  0.0613 -0.1001
    1DIPC   PO4 6422  14.563   8.489   7.297 -0.1046  0.2302  0.1126
    1DIPC   GL1 6423  14.275   8.626   6.949 -0.1357 -0.0417  0.0132
    1DIPC   GL2 6424  14.332   8.358   6.752  0.1800 -0.1946  0.1299
    1DIPC   C1A 6425  13.986   8.792   6.783 -0.0543 -0.1983  0.2545
    1DIPC   D2A 6426  13.580   8.970   6.724  0.0447  0.2254  0.0327
    1DIPC   D3A 6427  13.485   9.219   7.132  0.2075  0.0365  0.2897
    1DIPC   C4A 6428  13.586   9.619   7.106 -0.3534 -0.1598  0.1230
    1DIPC   C1B 6429  14.394   8.441   6.359  0.0937  0.0966 -0.0596
    1DIPC   D2B 6430  14.287   8.203   6.012 -0.0647  0.0315 -0.0388
    1DIPC   D3B 6431  14.449   8.115   5.652  0.0371  0.0863 -0.1467
    1DIPC   C4B 6432  14.611   8.210   5.245  0.0950  0.0798 -0.0998
    1DIPC   NC3 6433  19.913   8.026   7.261  0.0621 -0.0766 -0.0919
    1DIPC   PO4 6434  19.717   8.291   6.978  0.0366  0.2548  0.0308
    1DIPC   GL1 6435  19.798   8.032   6.592  0.4315 -0.2860 -0.1207
    1DIPC   GL2 6436  20.011   7.779   6.381  0.2767 -0.4074  0.1352
    1DIPC   C1A 6437  19.446   7.903   6.211  0.0184 -0.1608 -0.1297
    1DIPC   D2A 6438  19.489   7.807   5.788  0.1341  0.1447  0.1063
    1DIPC   D3A 6439  19.879   7.606   5.900 -0.2441  0.0471 -0.1170
    1DIPC   C4A 6440  20.243   7.733   5.805 -0.2666 -0.1412 -0.0886
    1DIPC   C1B 6441  20.312   8.037   6.346  0.0497 -0.2877 -0.2038
    1DIPC   D2B 6442  20.776   8.193   6.114  0.2435 -0.2709  0.1301
    1DIPC   D3B 6443  21.014   8.416   5.841 -0.1905 -0.1108  0.0365
    1DIPC   C4B 6444  21.121   8.327   5.332 -0.1856 -0.3638  0.5040
    1DIPC   NC3 6445  10.002  10.547   7.903  0.6664 -0.0925  0.0188
    1DIPC   PO4 6446  10.174  10.057   7.822 -0.0054  0.2936 -0.1106
    1DIPC   GL1 6447  10.325  10.185   7.447 -0.2544  0.0966  0.2162
    1DIPC   GL2 6448  10.363   9.973   7.210  0.3363  0.2754  0.1523
    1DIPC   C1A 6449  10.431  10.497   7.100 -0.1070 -0.1787  0.0035
    1DIPC   D2A 6450  10.510  10.963   7.127 -0.1254  0.0433 -0.1344
    1DIPC   D3A 6451  10.333  11.330   6.898 -0.0047 -0.0003 -0.0072
    1DIPC   C4A 6452   9.961  11.405   7.038 -0.0543  0.0106 -0.0041
    1DIPC   C1B 6453  10.384  10.106   6.826  0.1587  0.1845  0.2547
    1DIPC   D2B 6454  10.272  10.473   6.538 -0.0051 -0.1947 -0.3222
    1DIPC   D3B 6455  10.319  10.340   6.219 -0.0370 -0.2218  0.1436
    1DIPC   C4B 6456  10.604  10.560   5.863 -0.0238  0.2307  0.1403
    1DIPC   NC3 6457  10.922  23.517   6.347 -0.0752  0.0704  0.4556
    1DIPC   PO4 6458  11.145  23.841   6.217 -0.0737  0.0527  0.2915
    1DIPC   GL1 6459  11.227  23.917   5.711  0.1060  0.0362 -0.3176
    1DIPC   GL2 6460  11.515  23.816   5.583 -0.1497  0.1694 -0.0636
    1DIPC   C1A 6461  11.196  24.251   5.323  0.1713 -0.0152 -0.0747
    1DIPC   D2A 6462  11.147  24.410   4.865  0.2020  0.1985 -0.2507
    1DIPC   D3A 6463  11.549  24.571   4.736 -0.0335  0.2504  0.0088
    1DIPC   C4A 6464  11.623  24.572   4.271 -0.1716  0.0111 -0.3721
    1DIPC   C1B 6465  11.624  24.055   5.087  0.0821 -0.0626 -0.3021
    1DIPC   D2B 6466  11.518  24.061   4.672 -0.0000 -0.0879  0.1218
    1DIPC   D3B 6467  11.486  23.677   4.510  0.1830  0.2757  0.3219
    1DIPC   C4B 6468  11.167  23.740   4.274 -0.2168 -0.2051 -0.0669
    1DIPC   NC3 6469  24.934  16.910   5.842 -0.0298  0.0707  0.0935
    1DIPC   PO4 6470  24.419  17.057   5.766  0.1765  0.0234  0.0290
    1DIPC   GL1 6471  24.424  17.254   5.396 -0.0339 -0.0733  0.1666
    1DIPC   GL2 6472  24.594  17.385   5.191 -0.0646 -0.0519  0.0011
    1DIPC   C1A 6473  24.099  17.308   5.089 -0.0395  0.3228 -0.2238
    1DIPC   D2A 6474  24.146  17.367   4.667  0.0968 -0.0421 -0.1603
    1DIPC   D3A 6475  24.035  17.793   4.773 -0.0973 -0.1682 -0.0839
    1DIPC   C4A 6476  23.721  17.982   4.552 -0.0830 -0.3963 -0.0686
    1DIPC   C1B 6477  24.904  17.479   4.843  0.2627 -0.2279 -0.2298
    1DIPC   D2B 6478  25.158  17.673   4.536  0.3656 -0.0150  0.0445
    1DIPC   D3B 6479  24.834  17.448   4.216 -0.1253  0.0329 -0.1980
    1DIPC   C4B 6480  24.511  17.253   4.312  0.1151 -0.0477  0.0864
    1DIPC   NC3 6481   0.167  15.249   5.824  0.1537 -0.1518 -0.1824
    1DIPC   PO4 6482  -0.049  15.493   5.528  0.2218 -0.0252  0.4002
    1DIPC   GL1 6483  -0.183  15.491   5.144 -0.0263 -0.0022 -0.0108
    1DIPC   GL2 6484  -0.398  15.301   5.098  0.3354 -0.1542  0.0278
    1DIPC   C1A 6485  -0.127  15.604   4.755 -0.2898  0.0206  0.1057
    1DIPC   D2A 6486  -0.373  15.597   4.385  0.1538  0.1269  0.3273
    1DIPC   D3A 6487   0.086  15.574   4.188  0.2419 -0.2500 -0.0419
    1DIPC   C4A 6488   0.461  15.707   4.459  0.2842  0.2828  0.1153
    1DIPC   C1B 6489  -0.046  15.118   4.732 -0.1018 -0.0986 -0.1082
    1DIPC   D2B 6490   0.096  15.038   4.389 -0.0497 -0.0271  0.1651
    1DIPC   D3B 6491   0.436  15.146   4.367 -0.0605  0.3005  0.3103
    1DIPC   C4B 6492   0.416  15.236   4.015 -0.1142  0.1988  0.0952
    1DIPC   NC3 6493  27.494  15.090   5.602  0.1466 -0.0809 -0.0597
    1DIPC   PO4 6494  27.524  14.733   5.361  0.1216 -0.0998 -0.0654
    1DIPC   GL1 6495  27.477  14.473   4.981  0.0791  0.2596  0.1791
    1DIPC   GL2 6496  27.504  14.693   4.705  0.0637  0.0193 -0.1287
    1DIPC   C1A 6497  27.347  14.146   4.738 -0.0245  0.0317  0.1019
    1DIPC   D2A 6498  27.481  14.126   4.338 -0.0507 -0.1379 -0.1007
    1DIPC   D3A 6499  27.119  13.875   4.243  0.0880 -0.0826 -0.0816
    1DIPC   C4A 6500  27.096  13.801   3.828  0.2944 -0.0100 -0.3242
    1DIPC   C1B 6501  27.579  14.695   4.323 -0.0991 -0.1707  0.0304
    1DIPC   D2B 6502  27.732  14.413   4.027  0.1798 -0.0752 -0.2584
    1DIPC   D3B 6503  28.026  14.230   3.800 -0.1786  0.0183 -0.2544
    1DIPC   C4B 6504  28.135  14.495   3.619  0.1632 -0.0270 -0.1402
    1DIPC   NC3 6505   5.510  29.914   7.680 -0.0066  0.5436 -0.0425
    1DIPC   PO4 6506   5.917  29.828   7.546 -0.1595  0.2832 -0.1267
    1DIPC   GL1 6507   5.724  29.941   7.189 -0.1071 -0.0179  0.0370
    1DIPC   GL2 6508   5.506  29.944   6.977 -0.0945 -0.1952  0.2005
    1DIPC   C1A 6509   5.957  30.279   6.932 -0.1885 -0.0694 -0.0174
    1DIPC   D2A 6510   6.342  30.536   6.740 -0.1587  0.0516 -0.0171
    1DIPC   D3A 6511   6.711  30.363   6.489 -0.2033 -0.1859 -0.3661
    1DIPC   C4A 6512   6.865  30.026   6.593 -0.1760 -0.0794  0.4094
    1DIPC   C1B 6513   5.492  30.257   6.628  0.2031 -0.1472  0.1011
    1DIPC   D2B 6514   5.424  30.402   6.287  0.3674  0.0328  0.2854
    1DIPC   D3B 6515   5.677  30.446   6.024 -0.0948  0.0451 -0.0258
    1DIPC   C4B 6516   6.143  30.553   6.036  0.1625  0.0083  0.2923
    1DIPC   NC3 6517  21.757   4.886   6.971  0.0733  0.1397  0.0526
    1DIPC   PO4 6518  21.753   4.393   6.960 -0.0481 -0.3566  0.1839
    1DIPC   GL1 6519  21.774   4.447   6.562  0.1656  0.2061 -0.1910
    1DIPC   GL2 6520  21.484   4.469   6.434 -0.0922 -0.0847 -0.3279
    1DIPC   C1A 6521  21.886   4.697   6.244 -0.1285 -0.1120 -0.0630
    1DIPC   D2A 6522  21.763   4.819   5.785  0.0725  0.2767 -0.2620
    1DIPC   D3A 6523  21.890   4.629   5.453  0.0304  0.0324 -0.3600
    1DIPC   C4A 6524  22.125   4.914   5.251 -0.0059 -0.0670 -0.2641
    1DIPC   C1B 6525  21.085   4.644   6.372  0.0677 -0.0893 -0.1263
    1DIPC   D2B 6526  20.668   4.623   6.528  0.1408  0.1487  0.1002
    1DIPC   D3B 6527  20.291   4.334   6.219 -0.2410  0.2583 -0.0164
    1DIPC   C4B 6528  20.299   3.769   6.203  0.2470  0.4015 -0.0924
    1DIPC   NC3 6529  29.717  13.669   5.350 -0.0171  0.1193 -0.0086
    1DIPC   PO4 6530  29.260  13.770   5.258 -0.1080  0.2172 -0.0620
    1DIPC   GL1 6531  29.169  13.765   4.824  0.0646 -0.2618  0.0565
    1DIPC   GL2 6532  29.355  13.975   4.606  0.1727 -0.5124  0.0493
    1DIPC   C1A 6533  29.012  13.514   4.374 -0.0862  0.3705  0.0372
    1DIPC   D2A 6534  29.058  13.174   4.084 -0.3805  0.0951 -0.0097
    1DIPC   D3A 6535  28.894  12.760   3.957  0.2283 -0.3240 -0.1190
    1DIPC   C4A 6536  29.058  12.416   3.724  0.0336  0.1007  0.0134
    1DIPC   C1B 6537  29.625  13.653   4.595  0.2383  0.0458 -0.2074
    1DIPC   D2B 6538  30.068  13.597   4.457 -0.1737 -0.1611  0.0624
    1DIPC   D3B 6539  30.096  13.682   3.994  0.3741 -0.2291  0.1160
    1DIPC   C4B 6540  30.514  13.853   3.852  0.0062 -0.5176 -0.4698
    1DIPC   NC3 6541   0.894  11.457   5.883  0.0397  0.2630  0.2041
    1DIPC   PO4 6542   0.668  11.744   5.638 -0.1172  0.2154 -0.2771
    1DIPC   GL1 6543   0.441  11.822   5.212 -0.0688  0.0375  0.0602
    1DIPC   GL2 6544   0.251  11.757   5.214 -0.0700  0.1281 -0.0668
    1DIPC   C1A 6545   0.291  12.027   4.834  0.2823 -0.0279 -0.0066
    1DIPC   D2A 6546   0.164  12.385   4.601  0.3128  0.1575  0.0087
    1DIPC   D3A 6547   0.189  12.582   4.940  0.1225 -0.1421 -0.0232
    1DIPC   C4A 6548   0.366  12.966   4.870 -0.0425  0.3627  0.1701
    1DIPC   C1B 6549   0.085  11.497   4.830 -0.2345 -0.2658  0.0593
    1DIPC   D2B 6550   0.043  11.297   4.395 -0.2517  0.0844 -0.0152
    1DIPC   D3B 6551   0.118  10.916   4.470 -0.2235  0.4267 -0.0805
    1DIPC   C4B 6552   0.531  10.747   4.398  0.1746  0.0901  0.2436
    1DIPC   NC3 6553  28.963  16.413   5.533 -0.0499  0.0251  0.0884
    1DIPC   PO4 6554  28.554  16.264   5.365 -0.3440 -0.1951 -0.0024
    1DIPC   GL1 6555  28.375  16.046   5.009  0.0213  0.1810  0.2483
    1DIPC   GL2 6556  28.199  16.242   4.824  0.2356  0.0731  0.0570
    1DIPC   C1A 6557  28.560  16.010   4.573 -0.0660 -0.0058 -0.0920
    1DIPC   D2A 6558  28.278  16.133   4.249  0.1197 -0.0171  0.0157
    1DIPC   D3A 6559  28.330  16.427   3.923 -0.0514 -0.2160  0.0907
    1DIPC   C4A 6560  28.369  16.764   4.157  0.0390  0.4251 -0.2676
    1DIPC   C1B 6561  28.256  16.646   4.639  0.1244 -0.1194 -0.0705
    1DIPC   D2B 6562  27.998  16.926   4.465  0.0697  0.0299 -0.0314
    1DIPC   D3B 6563  27.823  16.876   4.086  0.1756  0.3001  0.1394
    1DIPC   C4B 6564  27.988  16.915   3.743  0.2767 -0.2094 -0.2683
    1DIPC   NC3 6565   9.231  11.142   7.806  0.0303 -0.0411  0.1715
    1DIPC   PO4 6566   9.101  11.590   7.689  0.1198 -0.0138 -0.0424
    1DIPC   GL1 6567   8.807  11.652   7.429  0.0045  0.1033 -0.1893
    1DIPC   GL2 6568   9.007  11.628   7.157  0.0942  0.1595 -0.5220
    1DIPC   C1A 6569   8.563  11.382   7.143 -0.2666 -0.0944 -0.0331
    1DIPC   D2A 6570   8.740  10.847   7.057 -0.0443 -0.1416 -0.2936
    1DIPC   D3A 6571   8.540  10.507   6.854  0.0682  0.2076 -0.2950
    1DIPC   C4A 6572   8.513  10.061   6.996 -0.1485 -0.1284  0.1385
    1DIPC   C1B 6573   9.367  11.474   6.997 -0.1607 -0.0889 -0.0916
    1DIPC   D2B 6574   9.628  11.200   6.701  0.0915 -0.0500  0.1066
    1DIPC   D3B 6575   9.264  11.225   6.358 -0.0620  0.0670  0.0299
    1DIPC   C4B 6576   8.949  10.967   6.458  0.1361  0.0314  0.1404
    1DIPC   NC3 6577  26.922  15.661   5.237  0.0246  0.0588  0.2703
    1DIPC   PO4 6578  26.896  16.104   5.274  0.0870 -0.1563  0.0790
    1DIPC   GL1 6579  26.895  16.585   5.103  0.0676  0.2579  0.0883
    1DIPC   GL2 6580  26.687  16.375   4.828 -0.0882 -0.0507  0.0382
    1DIPC   C1A 6581  27.319  16.795   5.038 -0.5040 -0.2677  0.1870
    1DIPC   D2A 6582  27.841  16.809   4.969 -0.4398  0.0129  0.0886
    1DIPC   D3A 6583  27.785  16.484   4.738 -0.0184 -0.1222  0.0051
    1DIPC   C4A 6584  27.928  16.430   4.256 -0.4063 -0.1595 -0.2495
    1DIPC   C1B 6585  26.814  16.131   4.467  0.1965 -0.0107  0.0380
    1DIPC   D2B 6586  26.958  16.092   3.973  0.1859 -0.0858 -0.1905
    1DIPC   D3B 6587  27.113  16.163   3.661  0.0779  0.2235 -0.2835
    1DIPC   C4B 6588  27.194  15.972   3.289 -0.1173 -0.0860 -0.2425
    1DIPC   NC3 6589  16.520  25.173   6.606  0.2044 -0.3000  0.1626
    1DIPC   PO4 6590  16.129  25.083   6.713  0.1802 -0.4122 -0.0585
    1DIPC   GL1 6591  15.942  25.220   6.242  0.1492  0.2174  0.1705
    1DIPC   GL2 6592  15.978  25.051   5.927 -0.0612  0.3532  0.1948
    1DIPC   C1A 6593  15.808  25.474   5.934  0.2352 -0.2617 -0.2198
    1DIPC   D2A 6594  15.728  25.553   5.472 -0.2168  0.3975 -0.0255
    1DIPC   D3A 6595  15.838  25.443   5.088  0.0655 -0.1194 -0.0867
    1DIPC   C4A 6596  16.229  25.640   5.046 -0.0610 -0.0695  0.3544
    1DIPC   C1B 6597  15.842  24.998   5.482  0.1912 -0.0444  0.1946
    1DIPC   D2B 6598  15.613  24.847   5.165 -0.2166 -0.2775 -0.1095
    1DIPC   D3B 6599  16.026  25.018   4.932  0.2133 -0.2252  0.0984
    1DIPC   C4B 6600  16.073  25.291   4.666  0.2652  0.1787 -0.2101
    1DIPC   NC3 6601  11.652   3.291   7.219  0.0597 -0.0085 -0.2121
    1DIPC   PO4 6602  11.310   3.193   7.329 -0.1709  0.3154  0.0215
    1DIPC   GL1 6603  11.302   3.181   6.932  0.0190 -0.1212  0.1308
    1DIPC   GL2 6604  11.494   3.442   6.753 -0.1396 -0.1719  0.3333
    1DIPC   C1A 6605  11.579   2.965   6.626  0.2080  0.2374  0.0978
    1DIPC   D2A 6606  11.691   3.157   6.266  0.1123  0.0364  0.2675
    1DIPC   D3A 6607  11.419   2.874   6.116 -0.0594 -0.0696 -0.0912
    1DIPC   C4A 6608  11.407   2.619   5.828  0.1398 -0.0512 -0.0108
    1DIPC   C1B 6609  11.511   3.796   6.539  0.3335 -0.0209  0.2000
    1DIPC   D2B 6610  11.681   4.209   6.684 -0.0459  0.2554 -0.0515
    1DIPC   D3B 6611  11.934   4.115   6.296  0.1334 -0.1135 -0.1379
    1DIPC   C4B 6612  12.291   4.077   6.548  0.1762 -0.0840  0.0153
    1DIPC   NC3 6613  28.202  13.684   5.832  0.1209  0.0100  0.0254
    1DIPC   PO4 6614  28.440  13.520   5.458 -0.0045  0.0292  0.2803
    1DIPC   GL1 6615  28.613  13.285   5.013  0.0053  0.2003  0.3047
    1DIPC   GL2 6616  28.684  13.596   4.771 -0.1594  0.0391 -0.2588
    1DIPC   C1A 6617  29.059  13.254   4.777 -0.0652  0.3212 -0.0042
    1DIPC   D2A 6618  29.336  12.936   4.571  0.1125  0.0107  0.2446
    1DIPC   D3A 6619  29.654  13.199   4.410  0.1468  0.0863  0.0127
    1DIPC   C4A 6620  30.091  13.115   4.231  0.2363 -0.2669  0.2161
    1DIPC   C1B 6621  28.696  13.890   4.518 -0.0929  0.1527  0.1508
    1DIPC   D2B 6622  28.848  14.152   4.210 -0.4368 -0.4060 -0.1840
    1DIPC   D3B 6623  29.249  14.389   4.342 -0.0654 -0.1936 -0.0222
    1DIPC   C4B 6624  29.195  14.624   4.784  0.0297  0.4192 -0.2776
    1DIPC   NC3 6625   3.625  23.127   5.662  0.2377 -0.0095 -0.2961
    1DIPC   PO4 6626   3.946  23.573   5.547  0.2003 -0.5070 -0.0496
    1DIPC   GL1 6627   3.854  23.699   5.088  0.0819  0.0359 -0.0367
    1DIPC   GL2 6628   3.588  23.924   4.970 -0.2532  0.3110  0.1408
    1DIPC   C1A 6629   3.994  23.678   4.701 -0.2620  0.0132  0.0398
    1DIPC   D2A 6630   4.223  23.711   4.309 -0.2655 -0.1385  0.0478
    1DIPC   D3A 6631   4.053  23.508   4.026 -0.1973  0.2535 -0.0178
    1DIPC   C4A 6632   4.102  23.458   3.591  0.1821  0.2930  0.3429
    1DIPC   C1B 6633   3.745  24.120   4.683 -0.4955 -0.1850  0.0237
    1DIPC   D2B 6634   3.953  24.135   4.260  0.0932 -0.1912  0.1390
    1DIPC   D3B 6635   4.308  24.284   4.004 -0.0430 -0.2210  0.0880
    1DIPC   C4B 6636   4.339  24.642   3.796 -0.2602 -0.1262 -0.2374
    1DIPC   NC3 6637   2.828   1.662   7.464  0.2207  0.1051 -0.2647
    1DIPC   PO4 6638   2.922   1.882   7.079 -0.2116 -0.0913  0.0765
    1DIPC   GL1 6639   3.285   1.873   6.779  0.0396 -0.2186  0.0263
    1DIPC   GL2 6640   3.144   1.959   6.475 -0.1080 -0.2078 -0.1714
    1DIPC   C1A 6641   3.518   1.714   6.423 -0.1419  0.1540  0.0613
    1DIPC   D2A 6642   3.503   1.436   6.041 -0.3285  0.1607  0.3019
    1DIPC   D3A 6643   3.894   1.406   6.251  0.0339 -0.0468  0.0596
    1DIPC   C4A 6644   4.086   1.358   6.594  0.1237  0.3720  0.0145
    1DIPC   C1B 6645   3.395   2.089   6.114 -0.0097  0.1094 -0.2043
    1DIPC   D2B 6646   3.618   2.368   5.898 -0.6906 -0.3140 -0.2269
    1DIPC   D3B 6647   3.621   2.040   5.597 -0.2709  0.0681 -0.3100
    1DIPC   C4B 6648   3.736   1.577   5.624  0.0103 -0.0198  0.2485
    1DIPC   NC3 6649  29.484   8.649   6.267 -0.3926  0.1011 -0.0646
    1DIPC   PO4 6650  29.607   8.591   5.790 -0.2702 -0.1250  0.0498
    1DIPC   GL1 6651  29.391   8.304   5.557  0.0272 -0.1899 -0.1202
    1DIPC   GL2 6652  29.559   8.000   5.373 -0.1462  0.0162  0.2668
    1DIPC   C1A 6653  29.184   8.431   5.114  0.2207 -0.2886 -0.5126
    1DIPC   D2A 6654  29.363   8.388   4.822  0.4434 -0.1268 -0.0129
    1DIPC   D3A 6655  29.593   8.263   4.422 -0.2262  0.2962  0.1719
    1DIPC   C4A 6656  29.814   8.547   4.195 -0.0438 -0.2465  0.0791
    1DIPC   C1B 6657  30.053   7.976   5.357  0.0034 -0.1527  0.1206
    1DIPC   D2B 6658  30.367   8.180   5.230 -0.1539  0.0414 -0.3082
    1DIPC   D3B 6659  30.430   8.406   4.764 -0.0987  0.1509  0.1979
    1DIPC   C4B 6660  30.019   8.611   4.649 -0.0995  0.2505  0.1220
    1DIPC   NC3 6661  26.731  27.000   6.448  0.3046  0.1032  0.2188
    1DIPC   PO4 6662  26.691  26.500   6.433 -0.2331 -0.1195 -0.1298
    1DIPC   GL1 6663  26.848  26.558   6.052  0.0414  0.1592 -0.1104
    1DIPC   GL2 6664  27.067  26.279   5.835  0.1803 -0.0276 -0.1001
    1DIPC   C1A 6665  26.653  26.663   5.634 -0.1952  0.1176 -0.1020
    1DIPC   D2A 6666  26.467  26.704   5.215  0.1924 -0.0254 -0.1923
    1DIPC   D3A 6667  26.707  26.536   4.827  0.3212 -0.0150  0.1686
    1DIPC   C4A 6668  26.688  26.108   4.590  0.0941  0.3132 -0.0254
    1DIPC   C1B 6669  27.073  26.364   5.295 -0.3325  0.0984 -0.0512
    1DIPC   D2B 6670  27.270  26.366   4.942  0.1872 -0.3603 -0.2095
    1DIPC   D3B 6671  27.482  26.077   5.032  0.1125  0.0392  0.1858
    1DIPC   C4B 6672  27.637  25.699   5.204  0.0639  0.0349 -0.1279
    1DIPC   NC3 6673   5.268  16.656   5.899  0.2630 -0.0952  0.0305
    1DIPC   PO4 6674   5.664  16.975   5.877 -0.0643  0.0359 -0.1600
    1DIPC   GL1 6675   5.712  16.715   5.494  0.3431 -0.0253 -0.2576
    1DIPC   GL2 6676   5.801  16.434   5.536  0.1514 -0.0302  0.2941
    1DIPC   C1A 6677   5.707  16.670   5.066 -0.4201 -0.1261 -0.0749
    1DIPC   D2A 6678   6.024  16.518   4.924 -0.2969 -0.0942  0.6812
    1DIPC   D3A 6679   5.849  16.194   4.687 -0.2229  0.2396  0.0905
    1DIPC   C4A 6680   5.472  16.359   4.583 -0.3550  0.1218  0.1121
    1DIPC   C1B 6681   6.002  16.075   5.389 -0.0564 -0.0157 -0.1354
    1DIPC   D2B 6682   6.389  15.813   5.185 -0.0429 -0.0129 -0.1976
    1DIPC   D3B 6683   6.290  16.022   4.884  0.0103 -0.3607 -0.1178
    1DIPC   C4B 6684   6.578  16.091   4.569  0.1972  0.2511 -0.0160
    1DIPC   NC3 6685  29.441  17.148   5.170 -0.2002  0.0650 -0.1521
    1DIPC   PO4 6686  29.050  17.448   5.148  0.0488  0.3320 -0.0307
    1DIPC   GL1 6687  29.261  17.624   4.829  0.0056  0.3124 -0.2026
    1DIPC   GL2 6688  29.530  17.358   4.731 -0.1836 -0.0650  0.0848
    1DIPC   C1A 6689  29.581  17.798   4.459  0.1219  0.0004  0.2271
    1DIPC   D2A 6690  29.668  18.147   4.183  0.2383 -0.2046 -0.0417
    1DIPC   D3A 6691  30.117  18.111   4.048  0.1562  0.0206 -0.0943
    1DIPC   C4A 6692  30.117  17.762   3.699 -0.3125 -0.1893  0.0193
    1DIPC   C1B 6693  29.798  17.330   4.356 -0.0332 -0.1031  0.0535
    1DIPC   D2B 6694  29.910  17.429   3.981 -0.0327 -0.0504  0.0742
    1DIPC   D3B 6695  29.595  17.688   3.853  0.2838  0.0155  0.0052
    1DIPC   C4B 6696  29.444  18.101   3.653 -0.1342 -0.0186  0.0177
    1DIPC   NC3 6697  27.748  18.450   5.250 -0.0942 -0.2629 -0.0467
    1DIPC   PO4 6698  27.383  18.086   5.416 -0.1403 -0.0100  0.1324
    1DIPC   GL1 6699  27.257  18.019   5.131 -0.1196 -0.1395  0.0686
    1DIPC   GL2 6700  26.943  18.187   5.110  0.0726  0.1848  0.1421
    1DIPC   C1A 6701  27.241  17.941   4.757  0.2143 -0.2084  0.2723
    1DIPC   D2A 6702  27.101  18.093   4.328 -0.1551 -0.0176 -0.1212
    1DIPC   D3A 6703  27.503  18.141   4.328  0.0275 -0.2900 -0.1522
    1DIPC   C4A 6704  27.712  18.288   3.876 -0.1957 -0.1055  0.1367
    1DIPC   C1B 6705  26.914  18.370   4.674  0.1457 -0.2970 -0.0524
    1DIPC   D2B 6706  26.639  18.230   4.359 -0.2738  0.0110 -0.1301
    1DIPC   D3B 6707  26.640  18.150   3.930 -0.2592  0.4401 -0.1623
    1DIPC   C4B 6708  26.410  17.757   3.933 -0.0992 -0.1501 -0.2717
    1DIPC   NC3 6709   4.279  29.829   7.225 -0.2544  0.2426  0.0680
    1DIPC   PO4 6710   4.613  29.703   7.454  0.0780  0.0769  0.1451
    1DIPC   GL1 6711   4.839  29.915   7.090  0.2067 -0.0610  0.2039
    1DIPC   GL2 6712   4.658  29.694   6.868 -0.3083  0.3048 -0.1928
    1DIPC   C1A 6713   4.996  29.936   6.521 -0.0914  0.0151 -0.1207
    1DIPC   D2A 6714   4.998  29.675   6.264  0.0271  0.0845 -0.1077
    1DIPC   D3A 6715   5.230  29.983   6.105  0.3017  0.0823  0.1384
    1DIPC   C4A 6716   5.022  30.331   5.905 -0.1324 -0.1369  0.3707
    1DIPC   C1B 6717   4.532  29.652   6.505  0.2381  0.2374  0.2821
    1DIPC   D2B 6718   4.262  29.771   6.216  0.2246  0.1524  0.1394
    1DIPC   D3B 6719   4.180  30.027   5.889 -0.2035  0.2262  0.2722
    1DIPC   C4B 6720   3.871  30.344   5.797 -0.1661  0.1574 -0.0245
    1DIPC   NC3 6721  28.355  25.386   6.232  0.1507  0.3371  0.0096
    1DIPC   PO4 6722  27.918  25.264   6.342 -0.1891  0.3339  0.1879
    1DIPC   GL1 6723  27.968  25.450   5.882  0.0133 -0.0007 -0.2624
    1DIPC   GL2 6724  27.667  25.563   5.709 -0.0608 -0.0891  0.0328
    1DIPC   C1A 6725  28.194  25.550   5.520  0.1229 -0.1594 -0.1654
    1DIPC   D2A 6726  28.583  25.687   5.330 -0.1560 -0.0810 -0.4618
    1DIPC   D3A 6727  28.782  25.391   4.999  0.0156  0.1711 -0.0141
    1DIPC   C4A 6728  28.543  25.311   4.661 -0.1251  0.0337 -0.4399
    1DIPC   C1B 6729  27.768  25.236   5.424  0.2521 -0.1145  0.0045
    1DIPC   D2B 6730  27.762  25.226   4.981  0.0098  0.2300 -0.0863
    1DIPC   D3B 6731  28.239  25.408   5.020  0.2485 -0.0404 -0.2438
    1DIPC   C4B 6732  28.414  25.857   4.899 -0.0824  0.2012 -0.1169
    1DIPC   NC3 6733   5.592   6.461   7.186  0.1076  0.2400 -0.3011
    1DIPC   PO4 6734   5.219   6.418   6.924  0.0631 -0.2476  0.1788
    1DIPC   GL1 6735   5.223   6.756   6.671 -0.1715 -0.1255 -0.0745
    1DIPC   GL2 6736   5.295   6.755   6.363 -0.1334  0.1110 -0.1339
    1DIPC   C1A 6737   5.529   7.187   6.529  0.2430 -0.0088  0.1110
    1DIPC   D2A 6738   5.344   7.624   6.625 -0.0226 -0.1819 -0.0739
    1DIPC   D3A 6739   5.614   7.583   6.219 -0.1507  0.0619  0.2808
    1DIPC   C4A 6740   5.821   7.214   6.134  0.1421  0.2403  0.0889
    1DIPC   C1B 6741   5.302   7.014   5.963  0.0358  0.0031 -0.1839
    1DIPC   D2B 6742   5.087   7.204   5.616  0.0219  0.2644  0.0465
    1DIPC   D3B 6743   5.418   7.393   5.516  0.1703  0.2427 -0.0182
    1DIPC   C4B 6744   5.529   7.750   5.317  0.2017 -0.1079 -0.1136
    1DIPC   NC3 6745  26.278  23.795   6.342 -0.1246  0.2424 -0.0187
    1DIPC   PO4 6746  25.909  23.506   6.250  0.4003 -0.1610 -0.1785
    1DIPC   GL1 6747  25.801  23.445   5.828 -0.0838 -0.0349  0.0920
    1DIPC   GL2 6748  25.611  23.712   5.727  0.0368 -0.0973 -0.1810
    1DIPC   C1A 6749  25.788  23.387   5.359  0.0299 -0.0705 -0.0928
    1DIPC   D2A 6750  25.867  23.416   4.900 -0.1564 -0.3066  0.0184
    1DIPC   D3A 6751  25.739  22.994   4.772 -0.0587 -0.4251 -0.1515
    1DIPC   C4A 6752  25.431  23.000   4.329  0.0350  0.2749 -0.2285
    1DIPC   C1B 6753  25.325  23.819   5.391  0.0483 -0.1672  0.0362
    1DIPC   D2B 6754  25.377  23.598   5.029  0.1267  0.1915  0.1547
    1DIPC   D3B 6755  25.316  23.433   4.613  0.0372  0.0915  0.0386
    1DIPC   C4B 6756  25.330  23.714   4.325 -0.0307 -0.0032 -0.3703
    1DIPC   NC3 6757  25.989   7.408   5.964 -0.0021 -0.3379 -0.2806
    1DIPC   PO4 6758  26.206   7.099   5.979 -0.4839  0.5084  0.1371
    1DIPC   GL1 6759  26.420   7.228   5.695  0.1508 -0.0360 -0.3243
    1DIPC   GL2 6760  26.357   7.481   5.590  0.2052  0.2555 -0.0534
    1DIPC   C1A 6761  26.496   7.119   5.174  0.3022 -0.0716  0.1036
    1DIPC   D2A 6762  26.331   6.907   4.776  0.2703 -0.0832 -0.1643
    1DIPC   D3A 6763  26.516   6.503   4.983  0.1341 -0.0859 -0.5006
    1DIPC   C4A 6764  26.552   6.122   4.812  0.0680 -0.0210 -0.0800
    1DIPC   C1B 6765  26.462   7.660   5.063 -0.2745 -0.0043  0.0755
    1DIPC   D2B 6766  26.394   7.734   4.599 -0.2122 -0.3000 -0.1794
    1DIPC   D3B 6767  26.645   8.171   4.511 -0.1121 -0.0584 -0.0445
    1DIPC   C4B 6768  26.733   8.174   4.142 -0.1146  0.1811  0.0802
    1DIPC   NC3 6769  10.236  21.060   6.724  0.0743  0.2204  0.1419
    1DIPC   PO4 6770  10.437  20.845   6.357  0.0961 -0.0073 -0.3527
    1DIPC   GL1 6771  10.462  20.946   5.915  0.1891 -0.0225 -0.0314
    1DIPC   GL2 6772  10.280  21.049   5.631 -0.3129  0.2793 -0.2962
    1DIPC   C1A 6773  10.801  21.060   5.670  0.1471 -0.1756  0.0467
    1DIPC   D2A 6774  10.870  21.082   5.196 -0.0239  0.0277  0.0094
    1DIPC   D3A 6775  10.878  21.081   4.772 -0.2988 -0.0160 -0.2567
    1DIPC   C4A 6776  10.609  21.241   4.495 -0.0193  0.2087 -0.0110
    1DIPC   C1B 6777  10.556  20.765   5.359 -0.0535  0.0950 -0.2596
    1DIPC   D2B 6778  11.060  20.647   5.362  0.3140  0.1149  0.2873
    1DIPC   D3B 6779  10.954  20.631   4.917 -0.0223  0.2601  0.1265
    1DIPC   C4B 6780  10.480  20.844   4.868  0.1120 -0.1089 -0.1911
    1DIPC   NC3 6781   0.899  27.069   6.486 -0.3733 -0.1109 -0.1149
    1DIPC   PO4 6782   1.241  26.867   6.490  0.0402  0.1292 -0.1559
    1DIPC   GL1 6783   1.167  27.016   5.987 -0.0689 -0.0837  0.1179
    1DIPC   GL2 6784   0.803  26.815   5.913 -0.3396  0.3671  0.1394
    1DIPC   C1A 6785   1.067  27.102   5.575 -0.2266 -0.2063 -0.2395
    1DIPC   D2A 6786   0.868  26.987   5.167  0.1674  0.0495  0.1601
    1DIPC   D3A 6787   1.300  27.045   5.073 -0.1106 -0.0235 -0.1069
    1DIPC   C4A 6788   1.451  27.431   4.955  0.2862 -0.2088  0.0004
    1DIPC   C1B 6789   0.741  26.506   5.524  0.0066 -0.1210 -0.0420
    1DIPC   D2B 6790   0.876  26.276   5.228  0.2515 -0.0812 -0.2757
    1DIPC   D3B 6791   0.882  26.528   4.929 -0.0992  0.1298 -0.3604
    1DIPC   C4B 6792   0.718  26.315   4.592  0.1547  0.0903 -0.0452
    1DIPC   NC3 6793   5.506  21.306   6.277  0.1590  0.4204 -0.2856
    1DIPC   PO4 6794   5.740  21.607   5.994 -0.0183 -0.2177 -0.0110
    1DIPC   GL1 6795   5.785  21.493   5.490  0.2601  0.1005 -0.1365
    1DIPC   GL2 6796   5.510  21.511   5.180  0.2218  0.0065  0.0960
    1DIPC   C1A 6797   6.232  21.364   5.272 -0.3678  0.1125  0.0681
    1DIPC   D2A 6798   6.608  21.374   5.229 -0.2347 -0.0379 -0.3265
    1DIPC   D3A 6799   6.796  21.427   4.849  0.4837 -0.0026  0.1050
    1DIPC   C4A 6800   6.636  21.265   4.554 -0.0913 -0.0657 -0.0436
    1DIPC   C1B 6801   5.861  21.572   4.894  0.0885 -0.1163 -0.0314
    1DIPC   D2B 6802   6.295  21.607   4.777  0.1656 -0.1247  0.0171
    1DIPC   D3B 6803   6.559  21.863   4.478  0.1054  0.1629  0.1766
    1DIPC   C4B 6804   6.817  22.163   4.448  0.0900 -0.1267  0.0608
    1DIPC   NC3 6805  24.459  20.308   6.079 -0.5184 -0.1355 -0.2749
    1DIPC   PO4 6806  24.054  20.059   6.061 -0.2757 -0.0386 -0.0001
    1DIPC   GL1 6807  24.097  20.060   5.735  0.1481 -0.1646 -0.0266
    1DIPC   GL2 6808  24.173  20.308   5.551  0.1973  0.1459  0.1778
    1DIPC   C1A 6809  24.027  19.862   5.380 -0.0408  0.2190  0.1937
    1DIPC   D2A 6810  23.742  19.532   5.444 -0.0557  0.0032  0.1308
    1DIPC   D3A 6811  23.483  19.561   5.077  0.0479  0.2381 -0.1162
    1DIPC   C4A 6812  23.565  19.712   4.624  0.4157  0.0941  0.1022
    1DIPC   C1B 6813  23.919  20.601   5.329  0.0724  0.0666  0.1804
    1DIPC   D2B 6814  23.880  20.764   4.892  0.3400  0.1209  0.1249
    1DIPC   D3B 6815  23.544  20.611   4.563  0.1259  0.2036 -0.2708
    1DIPC   C4B 6816  23.680  20.229   4.453  0.0800 -0.5102  0.2010
    1DIPC   NC3 6817  25.115  16.078   5.517  0.0587  0.1480 -0.0587
    1DIPC   PO4 6818  25.195  15.569   5.343 -0.3841  0.2581 -0.1752
    1DIPC   GL1 6819  25.297  15.907   5.024 -0.0611  0.2429 -0.2261
    1DIPC   GL2 6820  25.647  16.037   4.995 -0.1514  0.1267  0.3459
    1DIPC   C1A 6821  25.342  15.824   4.629 -0.1707  0.4011  0.1674
    1DIPC   D2A 6822  25.464  15.950   4.192 -0.1641 -0.2562 -0.0180
    1DIPC   D3A 6823  25.648  16.230   3.836 -0.0176  0.0245 -0.0598
    1DIPC   C4A 6824  25.736  16.044   3.511 -0.0193  0.1753 -0.1915
    1DIPC   C1B 6825  25.484  16.253   4.582 -0.2925 -0.0122  0.0311
    1DIPC   D2B 6826  25.343  16.444   4.221 -0.0106 -0.2036  0.2339
    1DIPC   D3B 6827  25.121  16.782   4.217 -0.2989  0.1150  0.3201
    1DIPC   C4B 6828  25.277  17.109   3.903 -0.2358  0.1233 -0.2095
    1DIPC   NC3 6829  22.288   5.585   7.009 -0.4597  0.2987  0.0892
    1DIPC   PO4 6830  22.274   5.071   7.002  0.0995 -0.2208 -0.0339
    1DIPC   GL1 6831  22.137   5.065   6.584  0.0408  0.0632 -0.1417
    1DIPC   GL2 6832  22.319   5.335   6.485  0.1799 -0.1760  0.0175
    1DIPC   C1A 6833  21.828   5.297   6.241 -0.2735 -0.4361  0.0533
    1DIPC   D2A 6834  21.951   5.417   5.837 -0.0970 -0.0772 -0.2358
    1DIPC   D3A 6835  21.799   5.353   5.368 -0.0956  0.0590 -0.5528
    1DIPC   C4A 6836  21.617   5.039   5.362 -0.0680 -0.3812 -0.0275
    1DIPC   C1B 6837  22.296   5.055   6.070  0.0309 -0.0623 -0.3967
    1DIPC   D2B 6838  22.312   4.900   5.730  0.0643 -0.1996 -0.1471
    1DIPC   D3B 6839  22.344   5.216   5.567 -0.0924 -0.1136 -0.1954
    1DIPC   C4B 6840  22.529   5.543   5.781  0.1517  0.0157  0.2305
    1DIPC   NC3 6841   8.353  19.748   6.515  0.4725  0.2808 -0.1083
    1DIPC   PO4 6842   8.608  19.500   6.310 -0.0588  0.0753  0.2005
    1DIPC   GL1 6843   8.913  19.330   6.012  0.0602  0.2094  0.0984
    1DIPC   GL2 6844   9.055  19.565   5.907 -0.0148 -0.2131 -0.1893
    1DIPC   C1A 6845   8.920  19.164   5.512 -0.0058 -0.0149 -0.2397
    1DIPC   D2A 6846   8.871  19.159   5.051 -0.2376  0.0964 -0.0775
    1DIPC   D3A 6847   8.824  18.910   4.721  0.2365 -0.0431 -0.1556
    1DIPC   C4A 6848   9.264  18.762   4.484 -0.2040  0.0656  0.1872
    1DIPC   C1B 6849   9.149  19.596   5.487 -0.0407  0.2181 -0.3369
    1DIPC   D2B 6850   9.152  19.596   5.016 -0.0101  0.2674  0.1216
    1DIPC   D3B 6851   9.196  19.698   4.623  0.1201  0.2220  0.1109
    1DIPC   C4B 6852   9.554  19.527   4.428 -0.1661 -0.1817  0.0054
    1DIPC   NC3 6853   1.893   1.591   6.613 -0.0185  0.1061  0.1506
    1DIPC   PO4 6854   1.872   1.899   6.250 -0.0247 -0.4235 -0.0223
    1DIPC   GL1 6855   1.879   1.702   5.804 -0.1211  0.0244 -0.0642
    1DIPC   GL2 6856   2.165   1.722   5.733  0.0413  0.2970 -0.0220
    1DIPC   C1A 6857   1.940   1.949   5.359  0.0247 -0.0431 -0.2351
    1DIPC   D2A 6858   2.237   2.045   4.985 -0.0878  0.2097  0.1751
    1DIPC   D3A 6859   2.266   2.389   4.584 -0.4236 -0.1002  0.0509
    1DIPC   C4A 6860   2.480   2.838   4.709 -0.5012  0.1141 -0.0914
    1DIPC   C1B 6861   2.420   1.866   5.439 -0.0625 -0.2652 -0.0347
    1DIPC   D2B 6862   2.901   1.620   5.318  0.1063  0.0087  0.0265
    1DIPC   D3B 6863   3.257   1.931   5.272  0.0046  0.3070  0.0118
    1DIPC   C4B 6864   3.285   2.331   5.461 -0.0720 -0.2415 -0.2985
    1DIPC   NC3 6865  14.313   7.909   8.089 -0.0075 -0.1236 -0.0333
    1DIPC   PO4 6866  14.129   8.226   7.766 -0.0882  0.2847 -0.0389
    1DIPC   GL1 6867  14.264   8.115   7.298  0.2004  0.0439 -0.1179
    1DIPC   GL2 6868  13.981   7.908   7.336 -0.1791 -0.1940  0.1159
    1DIPC   C1A 6869  14.526   7.914   6.956  0.1025  0.0646  0.2008
    1DIPC   D2A 6870  14.600   7.528   6.717 -0.2394  0.0870 -0.1403
    1DIPC   D3A 6871  14.589   7.783   6.449  0.0581 -0.4441 -0.0419
    1DIPC   C4A 6872  14.758   7.728   6.006  0.0346 -0.0800 -0.1336
    1DIPC   C1B 6873  13.604   7.996   7.243  0.2548 -0.2401 -0.2321
    1DIPC   D2B 6874  13.275   7.920   6.949 -0.0222  0.1649 -0.4420
    1DIPC   D3B 6875  13.433   8.049   6.529 -0.3447 -0.1361  0.3748
    1DIPC   C4B 6876  13.143   7.938   6.142 -0.2962 -0.0053 -0.2176
    1DIPC   NC3 6877  30.146  16.943   5.797  0.1621 -0.3766 -0.0991
    1DIPC   PO4 6878  30.307  16.840   5.397 -0.2276  0.3012  0.0464
    1DIPC   GL1 6879  30.491  16.773   4.961 -0.0607 -0.1768 -0.0846
    1DIPC   GL2 6880  30.620  16.489   4.798  0.0809  0.0393 -0.0483
    1DIPC   C1A 6881  30.856  17.047   4.769 -0.0646 -0.0230  0.0098
    1DIPC   D2A 6882  30.994  17.260   4.429  0.0052 -0.1052  0.0142
    1DIPC   D3A 6883  30.697  17.116   4.226  0.0864 -0.0311 -0.0611
    1DIPC   C4A 6884  30.256  17.112   4.428  0.2056  0.1032 -0.1012
    1DIPC   C1B 6885  30.827  16.625   4.463  0.1084 -0.0560  0.1150
    1DIPC   D2B 6886  30.878  16.733   3.982 -0.2195  0.0870  0.2975
    1DIPC   D3B 6887  30.523  16.912   3.694 -0.1302  0.0448 -0.3470
    1DIPC   C4B 6888  30.141  16.926   3.884 -0.0872 -0.1647  0.0094
    1DIPC   NC3 6889  26.441  27.029   6.958  0.0571  0.3342  0.0020
    1DIPC   PO4 6890  26.258  26.750   6.601  0.0525  0.1857  0.2199
    1DIPC   GL1 6891  26.357  26.668   6.133  0.0074  0.1429 -0.4392
    1DIPC   GL2 6892  26.433  26.879   6.024 -0.0896  0.0986  0.2330
    1DIPC   C1A 6893  26.138  26.683   5.687  0.0858 -0.0423  0.1303
    1DIPC   D2A 6894  25.954  26.629   5.268 -0.2308 -0.0733 -0.1545
    1DIPC   D3A 6895  26.103  27.073   5.075 -0.0212 -0.0199  0.0286
    1DIPC   C4A 6896  26.477  27.235   5.184 -0.0295  0.2412  0.0750
    1DIPC   C1B 6897  26.590  27.182   5.807 -0.2591 -0.4206 -0.0335
    1DIPC   D2B 6898  26.530  27.633   5.648 -0.1740  0.1002 -0.2120
    1DIPC   D3B 6899  26.847  27.720   5.378  0.1777  0.2217 -0.1494
    1DIPC   C4B 6900  27.295  27.603   5.397 -0.1854 -0.1005 -0.0920
    1DIPC   NC3 6901   5.788  24.171   5.709 -0.1023  0.2169 -0.3090
    1DIPC   PO4 6902   5.426  24.492   5.800  0.0157 -0.2103  0.3956
    1DIPC   GL1 6903   5.410  24.604   5.343  0.1783 -0.0474  0.0787
    1DIPC   GL2 6904   5.107  24.560   5.170 -0.1919  0.0799  0.1273
    1DIPC   C1A 6905   5.487  24.891   5.074 -0.1646 -0.1249  0.1277
    1DIPC   D2A 6906   5.724  25.063   4.741  0.2549 -0.1164  0.0213
    1DIPC   D3A 6907   5.297  25.128   4.577 -0.1129  0.0118 -0.3489
    1DIPC   C4A 6908   5.036  24.940   4.870  0.1467 -0.3840 -0.1821
    1DIPC   C1B 6909   5.303  24.502   4.740 -0.2106  0.0798 -0.0691
    1DIPC   D2B 6910   5.690  24.292   4.629 -0.1584 -0.1536 -0.0164
    1DIPC   D3B 6911   5.737  24.618   4.469 -0.1027 -0.0197 -0.0329
    1DIPC   C4B 6912   5.851  24.635   4.041  0.1226 -0.2712 -0.0480
    1DIPC   NC3 6913  11.121   1.667   8.091 -0.5032 -0.2216 -0.1340
    1DIPC   PO4 6914  11.465   1.556   7.723 -0.0223  0.2606 -0.0546
    1DIPC   GL1 6915  11.276   1.368   7.294  0.1111  0.2130 -0.0530
    1DIPC   GL2 6916  11.244   0.992   7.216  0.1898 -0.4113  0.0225
    1DIPC   C1A 6917  11.081   1.271   6.878  0.0673 -0.1226 -0.2003
    1DIPC   D2A 6918  10.841   1.375   6.570  0.0909 -0.0195 -0.1128
    1DIPC   D3A 6919  10.939   1.635   6.481  0.2757  0.1763  0.1897
    1DIPC   C4A 6920  11.041   1.776   5.974  0.0822  0.1537  0.0476
    1DIPC   C1B 6921  11.202   0.796   6.865  0.0509 -0.2132  0.2169
    1DIPC   D2B 6922  11.029   0.800   6.319  0.2431  0.1077  0.4103
    1DIPC   D3B 6923  10.926   0.927   5.937 -0.2303  0.0269 -0.2653
    1DIPC   C4B 6924  11.177   1.266   5.794 -0.1175 -0.2541  0.1039
    1DIPC   NC3 6925  27.387  19.401   5.940  0.0775  0.0816  0.0880
    1DIPC   PO4 6926  27.520  19.046   5.694 -0.1962 -0.0389 -0.2524
    1DIPC   GL1 6927  27.511  18.948   5.252 -0.0685 -0.0431  0.6601
    1DIPC   GL2 6928  27.575  19.254   5.063 -0.0969 -0.2219 -0.1495
    1DIPC   C1A 6929  27.148  18.974   4.924 -0.3272  0.1093  0.2870
    1DIPC   D2A 6930  26.682  18.960   4.832 -0.2140  0.1306 -0.1764
    1DIPC   D3A 6931  26.938  18.914   4.422 -0.0406  0.0610 -0.0448
    1DIPC   C4A 6932  26.750  18.688   4.075 -0.0339 -0.4822  0.3030
    1DIPC   C1B 6933  27.971  19.339   4.778  0.3164 -0.1265  0.1096
    1DIPC   D2B 6934  28.231  19.572   4.448 -0.2980  0.3052  0.1750
    1DIPC   D3B 6935  27.957  19.443   4.078 -0.1326 -0.3168 -0.1534
    1DIPC   C4B 6936  27.747  19.119   4.225 -0.3299 -0.0225  0.2922
    1DIPC   NC3 6937   8.429   4.815   7.343  0.0025 -0.0159 -0.0199
    1DIPC   PO4 6938   8.700   4.728   7.029 -0.1264 -0.1496  0.0710
    1DIPC   GL1 6939   8.663   4.789   6.672  0.1990 -0.1888 -0.0278
    1DIPC   GL2 6940   8.881   4.949   6.601  0.0876  0.1471  0.0224
    1DIPC   C1A 6941   8.341   4.821   6.318 -0.2368  0.0924  0.0978
    1DIPC   D2A 6942   7.956   4.689   6.284 -0.0053 -0.0798 -0.0276
    1DIPC   D3A 6943   7.965   4.987   5.891 -0.1303 -0.3964  0.1193
    1DIPC   C4A 6944   7.791   5.417   5.828 -0.2944 -0.1428  0.1055
    1DIPC   C1B 6945   8.841   4.725   6.149 -0.3628  0.0805 -0.0403
    1DIPC   D2B 6946   8.924   4.306   6.052 -0.0258 -0.0057 -0.2556
    1DIPC   D3B 6947   8.660   3.959   5.963 -0.0986 -0.0167  0.0740
    1DIPC   C4B 6948   8.515   3.794   5.571  0.1450 -0.5035  0.1364
    1DIPC   NC3 6949  11.870  25.052   7.384  0.2877 -0.1316  0.0708
    1DIPC   PO4 6950  11.889  24.792   6.957 -0.2811  0.0290 -0.0708
    1DIPC   GL1 6951  12.078  24.892   6.587  0.0988  0.0481  0.2353
    1DIPC   GL2 6952  11.834  24.954   6.279 -0.1607  0.1602 -0.0764
    1DIPC   C1A 6953  12.338  24.984   6.209 -0.1164 -0.0601  0.2000
    1DIPC   D2A 6954  12.428  24.744   5.850 -0.1318  0.1049 -0.0530
    1DIPC   D3A 6955  12.043  24.681   5.639  0.2087  0.0010 -0.0706
    1DIPC   C4A 6956  12.001  24.212   5.374 -0.3085  0.0109  0.2160
    1DIPC   C1B 6957  12.025  25.256   5.865  0.0405  0.0769  0.2345
    1DIPC   D2B 6958  11.878  25.708   5.720 -0.2359  0.1847 -0.1772
    1DIPC   D3B 6959  11.773  25.746   5.291  0.3469 -0.0682 -0.2371
    1DIPC   C4B 6960  11.850  26.159   5.179  0.1875 -0.1751  0.0282
    1DIPC   NC3 6961  24.922   0.766   6.652  0.3118 -0.2196  0.2238
    1DIPC   PO4 6962  24.592   1.042   6.715  0.0249  0.2908 -0.0519
    1DIPC   GL1 6963  24.589   1.007   6.275 -0.0163 -0.0341  0.1761
    1DIPC   GL2 6964  24.567   0.661   6.306  0.2792 -0.1501  0.0851
    1DIPC   C1A 6965  24.786   0.891   5.899 -0.1139 -0.1626  0.1316
    1DIPC   D2A 6966  24.657   0.640   5.558  0.1384 -0.0738 -0.3075
    1DIPC   D3A 6967  25.095   0.939   5.487 -0.0529 -0.0206 -0.0098
    1DIPC   C4A 6968  25.059   1.105   5.101  0.2598 -0.1293  0.3549
    1DIPC   C1B 6969  24.298   0.532   6.010  0.2418  0.0413 -0.1756
    1DIPC   D2B 6970  23.972   0.467   5.766 -0.0611 -0.1848 -0.2024
    1DIPC   D3B 6971  24.018   0.506   5.372 -0.6049 -0.1492 -0.0943
    1DIPC   C4B 6972  24.315   0.865   5.204  0.0113  0.0401  0.1341
    1DIPC   NC3 6973   6.462  22.319   5.770  0.1049 -0.1973 -0.2870
    1DIPC   PO4 6974   6.866  22.216   5.466  0.2603 -0.2107 -0.0813
    1DIPC   GL1 6975   7.086  22.146   5.113  0.1743 -0.0578 -0.0698
    1DIPC   GL2 6976   7.306  22.327   5.058 -0.1443  0.2112 -0.0346
    1DIPC   C1A 6977   7.007  21.869   4.779 -0.2654  0.1242  0.1181
    1DIPC   D2A 6978   6.982  21.575   4.333  0.1751  0.2832  0.1419
    1DIPC   D3A 6979   6.579  21.733   4.002 -0.0891  0.2990 -0.1606
    1DIPC   C4A 6980   6.254  22.078   4.094  0.0480  0.1358 -0.0370
    1DIPC   C1B 6981   7.163  22.471   4.730  0.0435  0.2068 -0.1269
    1DIPC   D2B 6982   7.394  22.148   4.448  0.2043 -0.4199 -0.0599
    1DIPC   D3B 6983   7.544  22.305   4.043 -0.2608 -0.0585  0.3325
    1DIPC   C4B 6984   7.764  22.029   3.813 -0.0978 -0.3447 -0.1939
    1DIPC   NC3 6985  18.930  29.163   6.715  0.1838  0.0330 -0.0926
    1DIPC   PO4 6986  19.200  29.463   6.582 -0.0794  0.2840  0.1708
    1DIPC   GL1 6987  19.085  29.561   6.085  0.0657 -0.2603  0.1540
    1DIPC   GL2 6988  18.855  29.678   5.996 -0.0331  0.2310 -0.1081
    1DIPC   C1A 6989  19.127  29.940   5.700 -0.1973 -0.0803  0.2101
    1DIPC   D2A 6990  18.990  30.324   5.376 -0.1576  0.0973  0.2087
    1DIPC   D3A 6991  18.566  30.274   5.228  0.1638  0.0241 -0.2356
    1DIPC   C4A 6992  18.558  30.247   4.823 -0.3323 -0.0319 -0.0464
    1DIPC   C1B 6993  19.014  29.349   5.662 -0.1435  0.4271  0.0559
    1DIPC   D2B 6994  19.271  29.015   5.403 -0.2409  0.0016 -0.0922
    1DIPC   D3B 6995  19.576  29.295   5.231  0.0141 -0.2059  0.1066
    1DIPC   C4B 6996  19.736  29.222   4.921  0.0609  0.1781  0.0838
    1DIPC   NC3 6997  18.286  22.632   7.026 -0.1268 -0.2571  0.1849
    1DIPC   PO4 6998  18.226  22.359   6.749 -0.3677  0.2015  0.3642
    1DIPC   GL1 6999  18.413  22.683   6.417 -0.1901 -0.0145 -0.3295
    1DIPC   GL2 7000  18.145  23.051   6.315  0.2710 -0.2747 -0.3248
    1DIPC   C1A 7001  18.767  22.570   6.200  0.0976 -0.3308 -0.1447
    1DIPC   D2A 7002  18.839  22.532   5.805 -0.0531  0.1139 -0.2071
    1DIPC   D3A 7003  18.962  22.922   5.605 -0.0035 -0.0465 -0.0047
    1DIPC   C4A 7004  18.645  23.271   5.699 -0.1925  0.0537  0.0109
    1DIPC   C1B 7005  18.469  22.902   6.004  0.1304 -0.1519  0.2020
    1DIPC   D2B 7006  18.501  22.852   5.543 -0.1000  0.0381 -0.2088
    1DIPC   D3B 7007  18.338  23.158   5.281 -0.0926 -0.0651  0.0205
    1DIPC   C4B 7008  18.286  23.570   5.241 -0.1582 -0.3014 -0.0162
    1DIPC   NC3 7009  27.484  27.815   6.911  0.0270 -0.2636  0.1142
    1DIPC   PO4 7010  27.643  27.750   6.418  0.2049 -0.0482  0.2337
    1DIPC   GL1 7011  27.911  27.868   6.203  0.0472  0.4574  0.0128
    1DIPC   GL2 7012  28.033  28.174   6.217  0.1255 -0.1747  0.2178
    1DIPC   C1A 7013  28.209  27.657   5.994 -0.2905  0.0798 -0.1149
    1DIPC   D2A 7014  28.487  27.462   5.720  0.1600  0.1366  0.0913
    1DIPC   D3A 7015  28.356  27.460   5.221 -0.1661 -0.0653  0.0023
    1DIPC   C4A 7016  28.631  27.493   4.971  0.0140 -0.1822  0.2066
    1DIPC   C1B 7017  28.354  28.559   6.017  0.1114  0.0580  0.0008
    1DIPC   D2B 7018  28.581  28.656   5.634 -0.2326  0.1155  0.0000
    1DIPC   D3B 7019  28.996  28.441   5.818  0.3102 -0.1202 -0.2606
    1DIPC   C4B 7020  29.181  28.111   5.428  0.1226 -0.0376 -0.1687
    1DIPC   NC3 7021   0.244  22.502   6.128 -0.0317  0.3117  0.1128
    1DIPC   PO4 7022   0.025  22.533   5.679 -0.1157  0.1811  0.1886
    1DIPC   GL1 7023  -0.212  22.567   5.251 -0.3208  0.2495  0.1531
    1DIPC   GL2 7024   0.036  22.577   4.968 -0.2214  0.1605  0.2550
    1DIPC   C1A 7025  -0.489  22.694   4.835 -0.0640 -0.2076 -0.1292
    1DIPC   D2A 7026  -0.702  23.068   4.562  0.1029 -0.0318  0.2502
    1DIPC   D3A 7027  -1.099  22.837   4.437 -0.2462 -0.0212 -0.1075
    1DIPC   C4A 7028  -1.000  22.504   4.155  0.3361  0.0206 -0.1844
    1DIPC   C1B 7029   0.327  22.724   4.656  0.1225  0.1530  0.0393
    1DIPC   D2B 7030   0.451  23.112   4.513 -0.1557 -0.1554 -0.1037
    1DIPC   D3B 7031   0.171  22.956   4.188 -0.0231 -0.2302 -0.2138
    1DIPC   C4B 7032   0.359  22.849   3.855 -0.0092 -0.1234  0.2017
    1DIPC   NC3 7033  15.399   0.522   7.077 -0.0790 -0.0705 -0.0361
    1DIPC   PO4 7034  15.601   0.814   7.154  0.1276  0.0385 -0.0613
    1DIPC   GL1 7035  15.523   0.816   6.638  0.0750  0.1341 -0.0277
    1DIPC   GL2 7036  15.271   0.706   6.502 -0.1099 -0.0487  0.1320
    1DIPC   C1A 7037  15.598   0.802   6.173  0.2497  0.2802  0.0010
    1DIPC   D2A 7038  15.766   0.895   5.696  0.0209  0.1221 -0.1387
    1DIPC   D3A 7039  15.654   0.435   5.760  0.2791  0.1631 -0.0546
    1DIPC   C4A 7040  15.854   0.083   5.851 -0.1088 -0.0247 -0.3901
    1DIPC   C1B 7041  15.214   0.468   6.106 -0.0829  0.0551 -0.2458
    1DIPC   D2B 7042  15.332   0.090   5.933  0.0148  0.0419 -0.0286
    1DIPC   D3B 7043  15.432  -0.023   5.617  0.1638  0.0238  0.1286
    1DIPC   C4B 7044  15.494  -0.449   5.480  0.2475  0.2076  0.6344
    1DIPC   NC3 7045  13.043  25.219   6.780 -0.1030 -0.1322 -0.0890
    1DIPC   PO4 7046  12.941  25.538   6.505 -0.4125  0.1724 -0.3072
    1DIPC   GL1 7047  12.827  25.254   6.274 -0.0630  0.1041  0.1463
    1DIPC   GL2 7048  12.464  25.478   6.151  0.0077  0.1157  0.1863
    1DIPC   C1A 7049  12.870  24.805   6.149 -0.0027 -0.1260 -0.1817
    1DIPC   D2A 7050  12.746  24.445   6.051 -0.2934 -0.2120 -0.0553
    1DIPC   D3A 7051  12.552  24.316   5.665  0.3325 -0.0334  0.0456
    1DIPC   C4A 7052  12.387  24.539   5.293  0.2217  0.4665 -0.3369
    1DIPC   C1B 7053  12.555  25.229   5.798  0.0078 -0.0076  0.2065
    1DIPC   D2B 7054  12.943  25.173   5.753  0.0482 -0.2891  0.1530
    1DIPC   D3B 7055  12.784  24.786   5.499  0.1364  0.1592 -0.0714
    1DIPC   C4B 7056  12.934  24.425   5.270 -0.4018  0.2636  0.2242
    1DIPC   NC3 7057  29.923   0.675   6.971  0.2071  0.1441 -0.1067
    1DIPC   PO4 7058  29.520   0.603   6.764  0.0462  0.0773  0.0489
    1DIPC   GL1 7059  29.664   0.618   6.357 -0.2981 -0.3572  0.1608
    1DIPC   GL2 7060  29.944   0.901   6.308 -0.0103 -0.3667 -0.0811
    1DIPC   C1A 7061  29.775   0.545   5.988 -0.0670 -0.1602 -0.4143
    1DIPC   D2A 7062  29.333   0.392   5.855  0.0900  0.3899 -0.0528
    1DIPC   D3A 7063  29.283   0.224   5.453  0.2040  0.1707  0.1132
    1DIPC   C4A 7064  29.193  -0.188   5.457 -0.0651 -0.0812 -0.0079
    1DIPC   C1B 7065  30.384   0.854   6.193  0.1055  0.1811  0.1497
    1DIPC   D2B 7066  30.549   0.731   5.752 -0.1471 -0.0357 -0.3063
    1DIPC   D3B 7067  30.027   0.964   5.791 -0.1080  0.0044 -0.0589
    1DIPC   C4B 7068  29.620   0.726   5.583  0.1854  0.0861 -0.2628
    1DIPC   NC3 7069  16.539   0.672   7.189 -0.3174 -0.3270  0.0741
    1DIPC   PO4 7070  16.340   0.352   6.900  0.1787  0.0462  0.1511
    1DIPC   GL1 7071  16.346   0.471   6.489 -0.0213 -0.4883  0.0230
    1DIPC   GL2 7072  16.120   0.705   6.392  0.3540  0.1788 -0.0971
    1DIPC   C1A 7073  16.410   0.230   6.121 -0.0767  0.0282 -0.1525
    1DIPC   D2A 7074  16.689   0.284   5.717 -0.1493  0.3234 -0.2036
    1DIPC   D3A 7075  16.814   0.312   5.212  0.0003  0.0910 -0.0539
    1DIPC   C4A 7076  16.509   0.055   4.996  0.0527 -0.0075 -0.1249
    1DIPC   C1B 7077  16.156   0.605   5.963 -0.1303 -0.3320 -0.1468
    1DIPC   D2B 7078  16.201   0.366   5.625  0.0415 -0.2332  0.1043
    1DIPC   D3B 7079  16.153   0.780   5.420 -0.2001 -0.1614 -0.0029
    1DIPC   C4B 7080  15.855   1.046   5.194  0.2674 -0.2101  0.1222
    1DIPC   NC3 7081   2.144   0.737   7.036  0.1473 -0.3183  0.0993
    1DIPC   PO4 7082   2.269   0.314   6.914 -0.2333  0.1399 -0.0895
    1DIPC   GL1 7083   2.328   0.438   6.552  0.2060 -0.1111  0.0704
    1DIPC   GL2 7084   2.171   0.708   6.557  0.2368 -0.0104  0.3531
    1DIPC   C1A 7085   2.590   0.439   6.285 -0.0786  0.1653 -0.1630
    1DIPC   D2A 7086   2.764   0.289   5.799 -0.4102  0.2312  0.1472
    1DIPC   D3A 7087   2.720   0.729   5.846 -0.1476  0.4221  0.0541
    1DIPC   C4A 7088   3.125   0.838   5.532 -0.3042 -0.0177 -0.1002
    1DIPC   C1B 7089   2.430   0.974   6.340 -0.1051  0.0023  0.2019
    1DIPC   D2B 7090   2.761   1.134   6.101  0.0690 -0.2606 -0.1077
    1DIPC   D3B 7091   2.950   1.743   6.107  0.0802  0.0103  0.0284
    1DIPC   C4B 7092   3.259   1.757   5.789  0.3434 -0.1035 -0.2287
    1DIPC   NC3 7093  21.796  12.615   6.861 -0.0569 -0.0026  0.3008
    1DIPC   PO4 7094  21.889  12.481   6.400  0.0126 -0.0721  0.1531
    1DIPC   GL1 7095  21.673  12.620   6.032  0.3168 -0.0998  0.2287
    1DIPC   GL2 7096  21.797  12.793   5.852  0.0796 -0.0339 -0.1019
    1DIPC   C1A 7097  21.368  12.467   5.739  0.1323 -0.0995 -0.0851
    1DIPC   D2A 7098  21.344  12.265   5.388  0.0828 -0.1150 -0.0220
    1DIPC   D3A 7099  21.552  12.284   5.045  0.1571 -0.1550 -0.3742
    1DIPC   C4A 7100  21.838  12.539   4.802  0.2881 -0.0123 -0.0703
    1DIPC   C1B 7101  21.941  13.027   5.508  0.0913  0.0506 -0.1929
    1DIPC   D2B 7102  21.968  12.987   5.040 -0.1394  0.0684  0.1692
    1DIPC   D3B 7103  22.097  13.364   4.719  0.0242  0.1380  0.1664
    1DIPC   C4B 7104  22.312  13.671   4.619 -0.0723  0.2122 -0.1408
    1DIPC   NC3 7105   7.380  20.204   5.831 -0.2313  0.2600 -0.0270
    1DIPC   PO4 7106   7.712  20.494   5.742  0.1328  0.1105  0.1074
    1DIPC   GL1 7107   7.858  20.091   5.508  0.2614  0.1123  0.0485
    1DIPC   GL2 7108   7.984  19.994   5.244  0.1516  0.0218 -0.2811
    1DIPC   C1A 7109   8.090  19.718   5.654  0.0296 -0.0566 -0.1141
    1DIPC   D2A 7110   8.141  19.316   5.549  0.0242  0.1877 -0.2288
    1DIPC   D3A 7111   8.503  19.380   5.747 -0.0551  0.1996  0.1282
    1DIPC   C4A 7112   8.688  19.820   5.612  0.2241 -0.1472 -0.1727
    1DIPC   C1B 7113   8.209  19.816   4.861  0.0020  0.1807 -0.0422
    1DIPC   D2B 7114   8.644  19.596   4.697 -0.1772  0.0231 -0.1460
    1DIPC   D3B 7115   8.723  20.014   4.564  0.1442  0.1887 -0.0677
    1DIPC   C4B 7116   8.406  20.325   4.722 -0.0121  0.2322 -0.1307
    1DIPC   NC3 7117  18.622  28.367   6.647 -0.1705  0.0430 -0.2585
    1DIPC   PO4 7118  18.950  28.594   6.628 -0.1390  0.3432  0.2028
    1DIPC   GL1 7119  18.840  28.301   6.182 -0.1093 -0.0141  0.1352
    1DIPC   GL2 7120  18.743  28.474   6.076  0.1894  0.0055  0.3251
    1DIPC   C1A 7121  18.882  27.938   5.931 -0.0835  0.0139  0.0461
    1DIPC   D2A 7122  19.160  28.001   5.536  0.2991  0.0227 -0.1568
    1DIPC   D3A 7123  19.003  27.561   5.484  0.0378  0.2704 -0.0417
    1DIPC   C4A 7124  19.083  27.366   5.037  0.0040 -0.0764 -0.1103
    1DIPC   C1B 7125  18.646  28.241   5.657  0.0866  0.2483 -0.0906
    1DIPC   D2B 7126  18.306  28.140   5.443  0.0608  0.2987 -0.0215
    1DIPC   D3B 7127  18.280  28.604   5.390 -0.0467  0.2156 -0.0770
    1DIPC   C4B 7128  18.641  28.872   5.487 -0.2771  0.0898 -0.2624
    1DIPC   NC3 7129  18.970   1.667   7.371  0.3871 -0.0113 -0.1062
    1DIPC   PO4 7130  19.170   1.779   7.082 -0.3873 -0.0344  0.0561
    1DIPC   GL1 7131  19.121   2.061   6.742 -0.1631 -0.2854 -0.0957
    1DIPC   GL2 7132  19.505   2.034   6.613 -0.0104  0.0110  0.0981
    1DIPC   C1A 7133  18.849   2.207   6.323 -0.1389  0.1734 -0.3868
    1DIPC   D2A 7134  18.718   2.426   5.966 -0.2389 -0.1068  0.2816
    1DIPC   D3A 7135  18.490   2.385   5.644  0.1005 -0.1256 -0.2388
    1DIPC   C4A 7136  18.462   2.011   5.457  0.3074 -0.0406  0.0668
    1DIPC   C1B 7137  19.361   2.159   6.201  0.0769 -0.0104  0.2485
    1DIPC   D2B 7138  19.244   2.344   5.828  0.0824  0.0548 -0.2556
    1DIPC   D3B 7139  19.012   2.652   5.499  0.0014 -0.1985  0.1642
    1DIPC   C4B 7140  19.356   2.885   5.207  0.0974  0.2051 -0.1280
    1DIPC   NC3 7141   8.261  17.485   6.603  0.1887 -0.0967 -0.1997
    1DIPC   PO4 7142   8.493  17.200   6.728  0.1006  0.0752  0.0880
    1DIPC   GL1 7143   8.660  17.368   6.356 -0.1059 -0.1080  0.0378
    1DIPC   GL2 7144   8.620  17.794   6.273 -0.1711 -0.0050 -0.1414
    1DIPC   C1A 7145   8.829  17.309   5.989 -0.2844 -0.0653  0.0923
    1DIPC   D2A 7146   8.694  17.024   5.578  0.0607 -0.2540 -0.2311
    1DIPC   D3A 7147   8.894  17.344   5.453 -0.1310 -0.3732 -0.0646
    1DIPC   C4A 7148   8.684  17.471   5.074  0.3055 -0.0388  0.0637
    1DIPC   C1B 7149   8.541  18.185   6.499  0.0521  0.1364  0.3776
    1DIPC   D2B 7150   8.558  18.531   6.287 -0.0657  0.3077  0.2113
    1DIPC   D3B 7151   8.288  18.346   6.043  0.2871 -0.1628 -0.1272
    1DIPC   C4B 7152   8.202  17.937   6.040  0.3053  0.1592  0.0455
    1DIPC   NC3 7153  22.339   1.942   6.406 -0.1260 -0.0778 -0.0553
    1DIPC   PO4 7154  22.492   1.559   6.215  0.0569  0.3811  0.0257
    1DIPC   GL1 7155  22.340   1.401   5.894  0.0196  0.0005 -0.1551
    1DIPC   GL2 7156  22.080   1.132   5.857 -0.0119  0.1420 -0.0319
    1DIPC   C1A 7157  22.449   1.332   5.470  0.1396  0.1935  0.2355
    1DIPC   D2A 7158  22.383   1.355   4.909  0.3512  0.2025  0.2554
    1DIPC   D3A 7159  22.400   1.855   5.020  0.3186  0.0281  0.1863
    1DIPC   C4A 7160  22.622   2.169   5.222  0.3140 -0.0347 -0.2553
    1DIPC   C1B 7161  21.793   0.689   5.698  0.1023 -0.3041 -0.3273
    1DIPC   D2B 7162  21.633   0.292   5.590  0.0687 -0.1486 -0.1029
    1DIPC   D3B 7163  21.978   0.349   5.235  0.2266  0.0190 -0.0551
    1DIPC   C4B 7164  22.125   0.157   4.853  0.1872  0.1524 -0.1785
    1DIPC   NC3 7165   0.160   8.323   6.563 -0.2469  0.0188 -0.0614
    1DIPC   PO4 7166   0.501   8.286   6.239  0.1910  0.1649 -0.0696
    1DIPC   GL1 7167   0.682   8.436   5.719  0.0075  0.1265 -0.0374
    1DIPC   GL2 7168   0.980   8.548   5.691  0.1154  0.3161 -0.0189
    1DIPC   C1A 7169   0.282   8.560   5.524 -0.0278  0.1754 -0.0942
    1DIPC   D2A 7170  -0.150   8.474   5.458  0.0396  0.0746 -0.2174
    1DIPC   D3A 7171   0.033   8.700   5.101 -0.2585 -0.0695 -0.1658
    1DIPC   C4A 7172  -0.171   9.033   4.874 -0.0069  0.2857  0.0497
    1DIPC   C1B 7173   1.137   8.255   5.387 -0.1045 -0.2676  0.1541
    1DIPC   D2B 7174   1.449   7.947   5.515 -0.2564  0.2020  0.1061
    1DIPC   D3B 7175   1.227   7.874   5.078  0.1325 -0.0828  0.1210
    1DIPC   C4B 7176   1.407   7.584   4.790 -0.3986  0.1510  0.1729
    1DIPC   NC3 7177  23.787   1.278   6.691  0.1389 -0.0805  0.1304
    1DIPC   PO4 7178  23.786   1.680   6.634 -0.0455 -0.2246  0.2251
    1DIPC   GL1 7179  23.556   1.989   6.378 -0.2380 -0.0629  0.3424
    1DIPC   GL2 7180  23.293   1.877   6.115  0.3482 -0.2015  0.0695
    1DIPC   C1A 7181  23.724   2.149   5.907  0.1656  0.0033 -0.0339
    1DIPC   D2A 7182  23.862   1.930   5.504 -0.2784  0.0374 -0.0045
    1DIPC   D3A 7183  23.795   2.205   5.102 -0.0018  0.1612  0.0571
    1DIPC   C4A 7184  24.033   2.565   5.125  0.1734  0.0737  0.2511
    1DIPC   C1B 7185  23.338   1.783   5.690  0.2087 -0.1201 -0.1707
    1DIPC   D2B 7186  23.068   1.878   5.354 -0.0232 -0.1935  0.4933
    1DIPC   D3B 7187  23.421   1.890   5.182 -0.0608  0.1144 -0.0192
    1DIPC   C4B 7188  23.731   1.709   4.935  0.0513 -0.0281  0.1824
    1DIPC   NC3 7189   5.563  20.217   5.050 -0.2458 -0.0695  0.2712
    1DIPC   PO4 7190   5.196  20.024   5.028 -0.0998 -0.1474 -0.0777
    1DIPC   GL1 7191   5.440  19.842   4.730  0.1643  0.2154 -0.1303
    1DIPC   GL2 7192   5.447  19.481   4.652 -0.0540 -0.0288  0.0018
    1DIPC   C1A 7193   5.658  19.793   4.306 -0.2001 -0.0617  0.1952
    1DIPC   D2A 7194   6.000  19.777   4.003  0.2973 -0.2327 -0.1151
    1DIPC   D3A 7195   5.641  19.985   3.790 -0.2158  0.1692 -0.0223
    1DIPC   C4A 7196   5.333  20.127   4.045 -0.2827  0.2353 -0.2454
    1DIPC   C1B 7197   5.515  19.244   4.250  0.0673  0.1120 -0.0637
    1DIPC   D2B 7198   5.353  18.981   3.915 -0.0913 -0.0472 -0.0331
    1DIPC   D3B 7199   5.511  18.719   4.129 -0.1315  0.1248 -0.1244
    1DIPC   C4B 7200   5.933  18.515   4.020  0.0519  0.1560  0.0776
    1DIPC   NC3 7201   8.740   7.517   7.055  0.1332  0.2048 -0.4054
    1DIPC   PO4 7202   8.350   7.667   7.196 -0.2150  0.0879 -0.0869
    1DIPC   GL1 7203   8.308   7.878   6.748  0.0382 -0.0589 -0.3455
    1DIPC   GL2 7204   8.653   7.829   6.591 -0.0491 -0.3103 -0.3429
    1DIPC   C1A 7205   8.319   8.309   6.588  0.0909 -0.1997 -0.0558
    1DIPC   D2A 7206   8.233   8.688   6.375 -0.3871  0.0199  0.4305
    1DIPC   D3A 7207   8.327   8.429   5.973 -0.0499 -0.0211 -0.0712
    1DIPC   C4A 7208   8.087   8.665   5.679 -0.1219  0.1346  0.1457
    1DIPC   C1B 7209   8.624   7.997   6.164 -0.1016 -0.1363  0.0708
    1DIPC   D2B 7210   8.428   7.940   5.732 -0.2698  0.0970  0.3408
    1DIPC   D3B 7211   8.026   7.908   5.784 -0.4285  0.3586 -0.0729
    1DIPC   C4B 7212   7.868   7.475   5.591  0.2531 -0.2337  0.0318
    1DIPC   NC3 7213  22.793  26.899   6.677  0.1905  0.0042  0.0420
    1DIPC   PO4 7214  23.205  26.747   6.677 -0.0241 -0.2333 -0.0247
    1DIPC   GL1 7215  23.460  26.730   6.344 -0.2956  0.0203  0.1710
    1DIPC   GL2 7216  23.728  26.782   6.434  0.3075  0.1662  0.2328
    1DIPC   C1A 7217  23.702  26.665   5.925  0.1709  0.1015 -0.1485
    1DIPC   D2A 7218  23.624  26.872   5.514  0.2406  0.0239 -0.1279
    1DIPC   D3A 7219  24.066  26.973   5.730 -0.1501  0.0241  0.3616
    1DIPC   C4A 7220  24.405  26.894   5.509  0.6488  0.0175 -0.2715
    1DIPC   C1B 7221  24.085  27.028   6.346 -0.0179 -0.0654 -0.1658
    1DIPC   D2B 7222  24.498  27.157   6.454 -0.5358 -0.2737  0.1184
    1DIPC   D3B 7223  24.543  26.965   6.087 -0.1110 -0.0876  0.1056
    1DIPC   C4B 7224  24.834  26.972   5.807  0.0272 -0.0866  0.1810
    1DIPC   NC3 7225  12.826   8.646   7.516 -0.2910  0.0690 -0.2210
    1DIPC   PO4 7226  13.200   8.902   7.498 -0.0703  0.1622  0.1571
    1DIPC   GL1 7227  13.118   8.901   7.086  0.1099 -0.0912 -0.0114
    1DIPC   GL2 7228  12.947   8.601   7.042 -0.1809  0.0961 -0.0561
    1DIPC   C1A 7229  13.083   9.094   6.731  0.5577  0.1797 -0.1417
    1DIPC   D2A 7230  13.265   9.571   6.657 -0.2432  0.0198 -0.0250
    1DIPC   D3A 7231  13.123   9.479   6.314 -0.0563 -0.0339  0.0431
    1DIPC   C4A 7232  12.987   9.319   5.846 -0.0016  0.2930  0.0880
    1DIPC   C1B 7233  12.964   8.312   6.696  0.1449  0.0606  0.0136
    1DIPC   D2B 7234  12.745   8.020   6.510 -0.0347 -0.1001 -0.1006
    1DIPC   D3B 7235  12.752   7.579   6.476 -0.0529  0.1946  0.1686
    1DIPC   C4B 7236  13.042   7.468   6.051 -0.1624  0.0599 -0.0865
    1DIPC   NC3 7237  20.816   6.266   7.742 -0.1598  0.2190  0.1107
    1DIPC   PO4 7238  20.858   6.251   7.201  0.5896  0.1113  0.3274
    1DIPC   GL1 7239  20.844   6.264   6.794 -0.1514 -0.1668  0.2823
    1DIPC   GL2 7240  20.917   6.463   6.514 -0.0884 -0.1141 -0.0414
    1DIPC   C1A 7241  20.949   5.950   6.534 -0.0663 -0.0071 -0.0226
    1DIPC   D2A 7242  21.204   5.684   6.220  0.2098 -0.1181 -0.1971
    1DIPC   D3A 7243  20.948   5.714   5.834 -0.1476  0.0041 -0.3215
    1DIPC   C4A 7244  20.729   5.360   5.686 -0.0475 -0.0457 -0.0051
    1DIPC   C1B 7245  20.865   6.598   6.092 -0.4111 -0.2397 -0.1095
    1DIPC   D2B 7246  20.788   6.625   5.588  0.0003 -0.0507  0.1056
    1DIPC   D3B 7247  21.245   6.724   5.373 -0.3453 -0.0161 -0.2079
    1DIPC   C4B 7248  21.257   6.786   4.908  0.0983  0.2323  0.3180
    1DIPC   NC3 7249  19.537  28.104   6.343 -0.0801  0.0406  0.0548
    1DIPC   PO4 7250  19.854  28.406   6.299  0.0827 -0.1718  0.0404
    1DIPC   GL1 7251  19.995  28.584   5.922 -0.1507 -0.1453 -0.0409
    1DIPC   GL2 7252  20.305  28.772   5.955 -0.0677  0.2042 -0.0602
    1DIPC   C1A 7253  19.919  28.624   5.493 -0.1308 -0.1092  0.0387
    1DIPC   D2A 7254  19.660  28.778   5.199 -0.0093  0.1153 -0.0065
    1DIPC   D3A 7255  19.294  28.582   5.198 -0.0478  0.2202  0.1225
    1DIPC   C4A 7256  18.898  28.744   4.963 -0.2617 -0.1506 -0.1203
    1DIPC   C1B 7257  20.382  28.506   5.582 -0.1601  0.2337 -0.0364
    1DIPC   D2B 7258  20.304  28.687   5.162  0.2223  0.0234  0.1416
    1DIPC   D3B 7259  20.301  28.559   4.727  0.0018  0.0357  0.2555
    1DIPC   C4B 7260  20.238  28.154   4.730  0.1202  0.3069 -0.3282
    1DIPC   NC3 7261  22.666   4.791   7.130 -0.0208  0.1045 -0.2653
    1DIPC   PO4 7262  22.656   4.351   6.987 -0.0441 -0.0865 -0.0478
    1DIPC   GL1 7263  22.612   4.362   6.574  0.4728 -0.2737 -0.1494
    1DIPC   GL2 7264  22.757   4.409   6.367 -0.4076  0.0319 -0.0245
    1DIPC   C1A 7265  22.356   4.581   6.205  0.1322  0.0363 -0.1183
    1DIPC   D2A 7266  22.236   4.404   5.832  0.0739 -0.3831 -0.1680
    1DIPC   D3A 7267  22.420   4.508   5.456 -0.1126 -0.1041  0.2208
    1DIPC   C4A 7268  22.534   4.305   5.069 -0.1603 -0.1350 -0.0926
    1DIPC   C1B 7269  22.724   4.346   5.926  0.0959 -0.0068 -0.2892
    1DIPC   D2B 7270  23.058   4.173   5.750  0.1960  0.0132  0.0311
    1DIPC   D3B 7271  23.483   4.169   5.785 -0.5127 -0.3282 -0.1574
    1DIPC   C4B 7272  23.562   4.264   6.248 -0.1050  0.1649 -0.1153
    1DIPC   NC3 7273   8.236  29.976   7.397  0.0688  0.1583  0.2225
    1DIPC   PO4 7274   8.013  29.635   7.164  0.0565  0.3893 -0.0641
    1DIPC   GL1 7275   8.031  29.895   6.856 -0.3488 -0.1043  0.0989
    1DIPC   GL2 7276   7.705  29.890   6.723  0.1188  0.0570 -0.3095
    1DIPC   C1A 7277   7.948  30.272   6.581  0.0726  0.0341 -0.1657
    1DIPC   D2A 7278   7.651  30.600   6.496  0.2711 -0.1358 -0.0921
    1DIPC   D3A 7279   7.625  30.459   6.085  0.1105  0.1298  0.2171
    1DIPC   C4A 7280   7.522  30.197   5.827  0.2431 -0.2379  0.0548
    1DIPC   C1B 7281   7.415  29.567   6.456  0.0852 -0.2455  0.1541
    1DIPC   D2B 7282   7.384  29.248   6.024  0.0440 -0.0258  0.3894
    1DIPC   D3B 7283   7.354  29.651   5.625  0.0424 -0.1823 -0.0175
    1DIPC   C4B 7284   7.800  29.630   5.433  0.0369  0.0361 -0.0431
    1DIPC   NC3 7285  29.443  15.508   5.549 -0.0938 -0.0169  0.0754
    1DIPC   PO4 7286  29.167  15.361   5.257 -0.1563 -0.1240  0.1647
    1DIPC   GL1 7287  29.272  15.113   4.922 -0.1112  0.1713 -0.2699
    1DIPC   GL2 7288  28.979  15.215   4.682  0.0737  0.0156  0.2812
    1DIPC   C1A 7289  29.645  15.112   4.654  0.0787  0.1796 -0.1781
    1DIPC   D2A 7290  29.752  15.022   4.199 -0.3101  0.1217 -0.1412
    1DIPC   D3A 7291  29.872  15.045   3.820  0.1659 -0.2681  0.3508
    1DIPC   C4A 7292  30.132  14.872   3.540  0.1410  0.2516 -0.2996
    1DIPC   C1B 7293  28.831  15.531   4.463  0.0546  0.1180  0.0857
    1DIPC   D2B 7294  28.758  15.806   4.057 -0.2088  0.2735  0.1217
    1DIPC   D3B 7295  29.068  15.893   3.745 -0.0650 -0.0539 -0.2434
    1DIPC   C4B 7296  29.104  16.066   3.328  0.0200 -0.1929 -0.1110
    1DIPC   NC3 7297   7.300   5.174   7.182  0.0770 -0.0309 -0.0818
    1DIPC   PO4 7298   7.576   4.803   7.036 -0.1638 -0.1093  0.0886
    1DIPC   GL1 7299   7.704   4.987   6.592  0.0671 -0.0899  0.0810
    1DIPC   GL2 7300   7.975   5.201   6.661 -0.0983  0.1565  0.0535
    1DIPC   C1A 7301   7.618   5.224   6.296  0.0874 -0.1621  0.1016
    1DIPC   D2A 7302   7.402   5.170   5.864  0.2196 -0.0585 -0.4166
    1DIPC   D3A 7303   7.243   5.560   5.676  0.1641 -0.1538  0.3506
    1DIPC   C4A 7304   7.662   5.726   5.317  0.1844 -0.0515 -0.1601
    1DIPC   C1B 7305   8.126   5.275   6.226  0.0075 -0.0842 -0.0635
    1DIPC   D2B 7306   8.314   5.607   6.116 -0.1539 -0.3823 -0.0621
    1DIPC   D3B 7307   8.324   5.384   5.694  0.1958  0.2349  0.0932
    1DIPC   C4B 7308   8.150   5.721   5.381 -0.1710  0.0578  0.2278
    1DIPC   NC3 7309  25.093   2.425   6.743 -0.1556 -0.4493  0.1328
    1DIPC   PO4 7310  25.468   2.352   6.487 -0.1571 -0.1566 -0.2381
    1DIPC   GL1 7311  25.494   2.494   6.110  0.1409  0.0107  0.1296
    1DIPC   GL2 7312  25.244   2.790   6.009 -0.2957  0.1536  0.0814
    1DIPC   C1A 7313  25.803   2.556   5.733  0.6565 -0.0071  0.1498
    1DIPC   D2A 7314  26.081   2.254   5.394  0.1254  0.0427  0.0735
    1DIPC   D3A 7315  25.797   2.248   5.016 -0.2927  0.1208 -0.1336
    1DIPC   C4A 7316  26.138   1.978   4.661 -0.1448 -0.2631 -0.0919
    1DIPC   C1B 7317  25.269   2.583   5.618 -0.3768 -0.3040  0.0768
    1DIPC   D2B 7318  25.040   2.652   5.317 -0.1895  0.0905 -0.0833
    1DIPC   D3B 7319  25.501   2.639   5.109  0.2135  0.0524  0.2670
    1DIPC   C4B 7320  25.720   2.460   4.571 -0.0926  0.0554  0.1822
    1DIPC   NC3 7321  17.321  24.140   7.187  0.1866  0.2675 -0.0476
    1DIPC   PO4 7322  17.043  23.986   6.855 -0.1938  0.2198 -0.0709
    1DIPC   GL1 7323  16.937  24.273   6.531 -0.0984 -0.3413  0.0554
    1DIPC   GL2 7324  17.301  24.410   6.599 -0.0431  0.0861  0.0981
    1DIPC   C1A 7325  16.979  24.399   6.067  0.2194 -0.0764 -0.1772
    1DIPC   D2A 7326  17.037  24.811   6.019  0.0931 -0.1281 -0.0464
    1DIPC   D3A 7327  16.959  24.914   5.585 -0.0998 -0.0786  0.2239
    1DIPC   C4A 7328  16.673  24.582   5.236  0.0555 -0.1145 -0.1126
    1DIPC   C1B 7329  17.536  24.294   6.181 -0.0213 -0.1183 -0.2647
    1DIPC   D2B 7330  17.399  24.311   5.811  0.2324  0.1361  0.4870
    1DIPC   D3B 7331  17.716  24.330   5.471 -0.0759 -0.0047  0.0507
    1DIPC   C4B 7332  17.748  24.651   5.098  0.2830 -0.0175 -0.0532
    1DIPC   NC3 7333  28.661  15.759   5.377  0.3619 -0.2712  0.1103
    1DIPC   PO4 7334  29.113  15.938   5.437 -0.0952  0.0521 -0.0334
    1DIPC   GL1 7335  28.952  16.112   5.040 -0.2054 -0.0690 -0.0252
    1DIPC   GL2 7336  28.781  16.355   4.953  0.3290  0.0853  0.3261
    1DIPC   C1A 7337  29.020  16.081   4.572 -0.1433  0.0161 -0.3482
    1DIPC   D2A 7338  28.771  16.299   4.138  0.0870 -0.0044  0.4509
    1DIPC   D3A 7339  28.858  16.352   3.776  0.0180  0.0105  0.2424
    1DIPC   C4A 7340  28.506  16.293   3.418  0.3430 -0.1898  0.1376
    1DIPC   C1B 7341  28.710  16.598   4.512 -0.1093  0.0326 -0.0838
    1DIPC   D2B 7342  28.884  16.810   4.031  0.0746  0.2050 -0.1568
    1DIPC   D3B 7343  29.099  17.119   4.104  0.3563 -0.2992  0.2871
    1DIPC   C4B 7344  29.376  17.023   4.341  0.3573  0.0848 -0.0648
    1DIPC   NC3 7345  10.434  29.945   7.216 -0.2656  0.0986  0.3562
    1DIPC   PO4 7346  10.686  29.544   7.130  0.0244 -0.1144  0.3720
    1DIPC   GL1 7347  10.500  29.690   6.755 -0.1507  0.2275 -0.2411
    1DIPC   GL2 7348  10.592  30.103   6.710  0.3853 -0.3303 -0.0935
    1DIPC   C1A 7349  10.377  29.439   6.333  0.2537 -0.2214  0.1833
    1DIPC   D2A 7350  10.291  29.363   5.914  0.0059  0.0226 -0.0141
    1DIPC   D3A 7351  10.297  29.610   5.583  0.0075 -0.1465 -0.1449
    1DIPC   C4A 7352  10.412  29.981   5.328  0.4820  0.0456  0.0232
    1DIPC   C1B 7353  10.960  30.121   6.571  0.2123 -0.1926  0.0836
    1DIPC   D2B 7354  11.347  30.013   6.629  0.1324  0.0103  0.2121
    1DIPC   D3B 7355  11.371  29.763   6.288 -0.2858 -0.1145  0.1366
    1DIPC   C4B 7356  11.140  29.950   5.975  0.0255  0.0134  0.0870
    1DIPC   NC3 7357   1.523  21.736   6.053  0.2218 -0.4166 -0.1893
    1DIPC   PO4 7358   1.286  22.115   5.990 -0.0374  0.0233 -0.0214
    1DIPC   GL1 7359   1.016  21.969   5.578  0.0287  0.1688 -0.0522
    1DIPC   GL2 7360   0.816  22.151   5.407  0.2717  0.1529  0.0674
    1DIPC   C1A 7361   0.895  21.642   5.328 -0.1817 -0.0556 -0.0343
    1DIPC   D2A 7362   0.506  21.596   5.062  0.2180  0.0317  0.0337
    1DIPC   D3A 7363   0.763  21.344   4.958 -0.1099  0.1814 -0.0309
    1DIPC   C4A 7364   1.161  21.658   4.778 -0.1095  0.2661  0.0597
    1DIPC   C1B 7365   0.738  22.001   4.934 -0.1017 -0.0054  0.1296
    1DIPC   D2B 7366   0.835  21.897   4.487  0.1108 -0.2501  0.0211
    1DIPC   D3B 7367   0.774  21.577   4.309 -0.1195 -0.1851 -0.3067
    1DIPC   C4B 7368   0.647  21.582   3.823 -0.0741  0.0145 -0.0986
    1DIPC   NC3 7369  23.468  12.869   6.410 -0.1330 -0.0155 -0.0759
    1DIPC   PO4 7370  23.835  12.978   6.129 -0.2299 -0.0239 -0.3894
    1DIPC   GL1 7371  23.774  13.002   5.640 -0.0865 -0.2552 -0.0287
    1DIPC   GL2 7372  24.001  13.224   5.449  0.2167 -0.0396  0.0142
    1DIPC   C1A 7373  23.547  13.417   5.453 -0.1684  0.0345  0.0086
    1DIPC   D2A 7374  23.142  13.413   5.117  0.1475 -0.1867 -0.0178
    1DIPC   D3A 7375  23.471  13.331   4.846  0.1464  0.0822  0.0925
    1DIPC   C4A 7376  23.204  13.180   4.410 -0.1562  0.1037  0.0388
    1DIPC   C1B 7377  23.968  12.947   5.071  0.4655 -0.0656  0.0482
    1DIPC   D2B 7378  24.037  12.713   4.652  0.2297 -0.2811  0.2383
    1DIPC   D3B 7379  23.840  13.131   4.526 -0.3736  0.0183 -0.0329
    1DIPC   C4B 7380  24.061  13.539   4.470 -0.1222 -0.1544  0.1011
    1DIPC   NC3 7381  25.126  27.098   7.130 -0.0420  0.1019  0.0284
    1DIPC   PO4 7382  25.433  26.926   6.877 -0.2036 -0.3188 -0.0559
    1DIPC   GL1 7383  25.785  26.898   6.470 -0.2633 -0.0881 -0.0369
    1DIPC   GL2 7384  25.529  26.781   6.313  0.5686 -0.0551  0.1568
    1DIPC   C1A 7385  25.807  27.017   6.005 -0.0947  0.1491  0.1201
    1DIPC   D2A 7386  25.663  27.088   5.635  0.0643 -0.2269 -0.0357
    1DIPC   D3A 7387  26.113  27.222   5.682  0.4607 -0.1326  0.0449
    1DIPC   C4A 7388  26.080  27.448   5.439 -0.0555 -0.1085  0.0299
    1DIPC   C1B 7389  25.817  26.549   6.082  0.0408 -0.2411 -0.1172
    1DIPC   D2B 7390  25.660  26.454   5.643  0.0625 -0.0659  0.1244
    1DIPC   D3B 7391  26.138  26.194   5.587 -0.2122  0.2263  0.2117
    1DIPC   C4B 7392  26.466  26.233   5.850 -0.0574 -0.0286 -0.1442
    1DIPC   NC3 7393  28.555   0.703   6.552 -0.3156 -0.2358  0.1937
    1DIPC   PO4 7394  28.614   0.259   6.599 -0.1859  0.1458 -0.1355
    1DIPC   GL1 7395  28.752   0.356   6.170 -0.0197 -0.4475 -0.1211
    1DIPC   GL2 7396  28.688   0.731   6.072  0.0354  0.0380  0.1421
    1DIPC   C1A 7397  28.916   0.124   5.775 -0.0002 -0.4108  0.1998
    1DIPC   D2A 7398  28.742   0.167   5.349 -0.2791  0.0114 -0.0839
    1DIPC   D3A 7399  28.866   0.514   5.173 -0.2412 -0.3166  0.0510
    1DIPC   C4A 7400  28.950   0.808   4.788  0.0393 -0.0880  0.0571
    1DIPC   C1B 7401  28.691   0.705   5.607  0.1197  0.0870  0.0223
    1DIPC   D2B 7402  28.525   0.924   5.211  0.0737  0.0332  0.2844
    1DIPC   D3B 7403  28.487   0.699   4.866  0.1519  0.0076  0.2381
    1DIPC   C4B 7404  28.739   0.371   4.620 -0.1347  0.0049 -0.2136
    1DIPC   NC3 7405  16.557   7.528   7.628  0.1379 -0.2178 -0.0033
    1DIPC   PO4 7406  16.216   7.270   7.639  0.2184  0.3229  0.2884
    1DIPC   GL1 7407  16.217   7.309   7.276 -0.0161 -0.2096  0.1715
    1DIPC   GL2 7408  16.215   7.015   7.138  0.0402  0.1768  0.1183
    1DIPC   C1A 7409  16.517   7.449   6.920  0.2834  0.2762 -0.3447
    1DIPC   D2A 7410  16.858   7.495   6.542  0.0129 -0.3186 -0.1109
    1DIPC   D3A 7411  16.691   7.496   6.160 -0.0327  0.0085  0.1173
    1DIPC   C4A 7412  16.697   7.099   5.842 -0.3216  0.1362 -0.0318
    1DIPC   C1B 7413  16.223   7.012   6.778  0.0498  0.0677 -0.0049
    1DIPC   D2B 7414  16.371   7.234   6.465 -0.0859 -0.0586  0.1661
    1DIPC   D3B 7415  16.197   7.071   5.991 -0.0544 -0.0611  0.1149
    1DIPC   C4B 7416  16.216   6.684   5.891 -0.0379  0.0234 -0.0280
    1DIPC   NC3 7417   2.637  10.898   6.083 -0.1245 -0.3728  0.1461
    1DIPC   PO4 7418   2.287  11.135   6.006 -0.1364 -0.1920 -0.0019
    1DIPC   GL1 7419   2.216  11.020   5.621 -0.2095 -0.1528  0.1049
    1DIPC   GL2 7420   2.532  10.959   5.578  0.0856 -0.0066  0.2409
    1DIPC   C1A 7421   2.182  11.123   5.159 -0.1042  0.0048 -0.4100
    1DIPC   D2A 7422   2.618  11.020   4.882 -0.1112 -0.2352  0.0429
    1DIPC   D3A 7423   2.707  11.185   4.460  0.1474  0.3159  0.0508
    1DIPC   C4A 7424   2.298  11.237   4.158  0.2243 -0.2728  0.0085
    1DIPC   C1B 7425   2.648  10.719   5.310  0.2433 -0.1063 -0.2546
    1DIPC   D2B 7426   2.674  10.446   4.941 -0.1109  0.2558 -0.3491
    1DIPC   D3B 7427   2.533  10.236   4.569  0.1524 -0.0197  0.0838
    1DIPC   C4B 7428   2.112  10.368   4.521 -0.0943 -0.0867  0.1552
    1DIPC   NC3 7429  18.194   5.786   6.985  0.0109  0.3093  0.0752
    1DIPC   PO4 7430  17.940   5.688   7.312  0.2080 -0.0928 -0.0788
    1DIPC   GL1 7431  18.006   5.296   7.131  0.1096  0.0426  0.0756
    1DIPC   GL2 7432  17.930   5.416   6.791 -0.0553 -0.0207  0.2614
    1DIPC   C1A 7433  18.317   5.125   6.779 -0.4695 -0.1897  0.3504
    1DIPC   D2A 7434  18.751   5.110   6.776 -0.0422 -0.0731 -0.1279
    1DIPC   D3A 7435  18.667   4.710   6.811  0.2699  0.2093 -0.1352
    1DIPC   C4A 7436  18.246   4.496   6.775  0.0583  0.2561  0.0565
    1DIPC   C1B 7437  18.127   5.528   6.430  0.3011  0.1118 -0.2742
    1DIPC   D2B 7438  18.378   5.271   6.221  0.1399  0.1154 -0.0782
    1DIPC   D3B 7439  18.064   5.394   5.952  0.0101 -0.0975  0.0955
    1DIPC   C4B 7440  17.754   5.549   5.861 -0.0094  0.4474 -0.1349
    1DIPC   NC3 7441   1.678  29.424   6.909  0.0681 -0.0149  0.1421
    1DIPC   PO4 7442   1.331  29.261   6.633  0.0817  0.0393  0.1780
    1DIPC   GL1 7443   1.667  29.115   6.420 -0.1525 -0.0337  0.1989
    1DIPC   GL2 7444   1.729  29.388   6.157 -0.0274  0.0088  0.2090
    1DIPC   C1A 7445   1.994  28.955   6.109 -0.1176  0.1488  0.0780
    1DIPC   D2A 7446   2.038  28.730   5.800 -0.2702 -0.2115 -0.1165
    1DIPC   D3A 7447   2.066  28.326   5.856  0.1830  0.1086  0.1540
    1DIPC   C4A 7448   1.958  28.092   5.538 -0.5396  0.0345 -0.0871
    1DIPC   C1B 7449   1.846  29.196   5.742 -0.0195 -0.2284 -0.0665
    1DIPC   D2B 7450   1.774  29.058   5.357 -0.0169  0.0009 -0.0103
    1DIPC   D3B 7451   1.582  29.455   5.424 -0.0720 -0.0861 -0.0433
    1DIPC   C4B 7452   1.782  29.788   5.187  0.0015 -0.0224  0.0622
    1DIPC   NC3 7453   2.220  25.943   6.390 -0.2899 -0.3483 -0.1174
    1DIPC   PO4 7454   2.432  25.900   6.017  0.1765  0.1869  0.0463
    1DIPC   GL1 7455   2.530  26.241   5.763 -0.2599 -0.3815  0.1060
    1DIPC   GL2 7456   2.541  26.355   5.383 -0.2302 -0.1770  0.0009
    1DIPC   C1A 7457   2.523  26.731   5.645  0.2994  0.0794  0.2274
    1DIPC   D2A 7458   2.207  27.000   5.467 -0.2868  0.3760 -0.0338
    1DIPC   D3A 7459   2.513  26.922   5.128 -0.2588 -0.0373  0.2910
    1DIPC   C4A 7460   2.374  27.088   4.818 -0.1300 -0.0089 -0.1982
    1DIPC   C1B 7461   2.611  26.526   4.863  0.2218 -0.0913 -0.1660
    1DIPC   D2B 7462   2.697  26.839   4.506  0.1603 -0.0569 -0.2589
    1DIPC   D3B 7463   3.108  26.755   4.635  0.3554  0.1324  0.0334
    1DIPC   C4B 7464   3.349  27.162   4.657  0.1931 -0.1442 -0.0280
    1DIPC   NC3 7465  16.509  24.085   6.847 -0.0793  0.3692  0.1214
    1DIPC   PO4 7466  16.206  24.231   6.539  0.0589 -0.0360  0.3606
    1DIPC   GL1 7467  16.344  24.537   6.151  0.1347  0.0549 -0.1499
    1DIPC   GL2 7468  16.488  24.898   6.220  0.2783 -0.1863  0.4725
    1DIPC   C1A 7469  16.546  24.395   5.674  0.1466  0.3214 -0.0234
    1DIPC   D2A 7470  16.984  24.431   5.560 -0.0380 -0.0207  0.2567
    1DIPC   D3A 7471  16.994  24.045   5.713  0.1615 -0.0603  0.2120
    1DIPC   C4A 7472  17.014  23.927   6.151 -0.1793  0.0896 -0.0155
    1DIPC   C1B 7473  16.439  24.913   5.720 -0.1646  0.0066  0.0166
    1DIPC   D2B 7474  16.333  25.066   5.279 -0.0929 -0.0868 -0.2140
    1DIPC   D3B 7475  16.705  25.158   5.140  0.0472  0.1659  0.0228
    1DIPC   C4B 7476  16.693  25.555   5.091 -0.2169  0.0485 -0.0613
    1DIPC   NC3 7477   3.693  13.286   6.176  0.3617  0.0947  0.2276
    1DIPC   PO4 7478   3.451  13.572   5.962  0.0664  0.0302  0.0470
    1DIPC   GL1 7479   3.340  13.594   5.510  0.2832  0.1638  0.3317
    1DIPC   GL2 7480   3.224  13.906   5.503  0.2940 -0.2469  0.1724
    1DIPC   C1A 7481   3.212  13.231   5.273 -0.0048 -0.0259  0.0673
    1DIPC   D2A 7482   3.299  13.014   4.894  0.1712 -0.4293 -0.1185
    1DIPC   D3A 7483   3.015  12.811   4.599  0.0578 -0.0042  0.0737
    1DIPC   C4A 7484   2.631  12.977   4.425  0.0576  0.0288  0.1034
    1DIPC   C1B 7485   3.380  13.702   5.034  0.0363 -0.1377 -0.0348
    1DIPC   D2B 7486   3.468  13.640   4.599  0.3514 -0.3227  0.1872
    1DIPC   D3B 7487   3.703  13.921   4.356  0.1050  0.0910 -0.1443
    1DIPC   C4B 7488   4.161  13.805   4.129  0.0798  0.3665  0.1882
    1DIPC   NC3 7489  27.461   6.567   6.659  0.0478 -0.3267 -0.1380
    1DIPC   PO4 7490  27.754   6.735   6.318  0.1540 -0.2337 -0.3283
    1DIPC   GL1 7491  27.713   6.818   5.931 -0.1161  0.1975 -0.1142
    1DIPC   GL2 7492  28.010   6.944   5.809  0.0219  0.1309 -0.1381
    1DIPC   C1A 7493  27.555   6.833   5.515  0.1685 -0.4058 -0.4276
    1DIPC   D2A 7494  27.460   6.582   5.175  0.0282 -0.1849  0.1450
    1DIPC   D3A 7495  27.610   6.349   4.865  0.4792  0.0054 -0.2254
    1DIPC   C4A 7496  27.504   6.550   4.530 -0.0758 -0.0447  0.2167
    1DIPC   C1B 7497  28.010   6.484   5.574  0.2552  0.1017  0.1276
    1DIPC   D2B 7498  28.049   6.461   5.102  0.2353 -0.0679  0.1295
    1DIPC   D3B 7499  28.098   6.435   4.717  0.6698  0.1416 -0.0167
    1DIPC   C4B 7500  28.055   6.083   4.405  0.2644  0.1977 -0.0785
    1DIPC   NC3 7501   2.235  22.341   5.542  0.1064  0.0853  0.1365
    1DIPC   PO4 7502   2.025  22.051   5.480 -0.2824  0.1520 -0.1395
    1DIPC   GL1 7503   2.027  21.855   5.064 -0.0561 -0.1303 -0.2479
    1DIPC   GL2 7504   2.154  22.046   4.773  0.1355  0.2100 -0.1154
    1DIPC   C1A 7505   1.725  21.716   4.777  0.1811  0.3229  0.2520
    1DIPC   D2A 7506   1.725  21.343   4.683  0.1217  0.0775  0.2106
    1DIPC   D3A 7507   1.513  21.400   4.345 -0.2020 -0.0665 -0.2872
    1DIPC   C4A 7508   1.403  21.798   4.366 -0.0772 -0.0297 -0.1278
    1DIPC   C1B 7509   1.706  22.170   4.672 -0.0129  0.1510  0.3001
    1DIPC   D2B 7510   1.591  22.315   4.296 -0.2783  0.0593 -0.0293
    1DIPC   D3B 7511   1.493  22.157   3.918  0.0187 -0.1022 -0.0153
    1DIPC   C4B 7512   1.770  22.061   3.797  0.0428 -0.3469  0.2438
    1DIPC   NC3 7513  28.651   5.598   6.301 -0.0813  0.3020 -0.2341
    1DIPC   PO4 7514  28.598   5.171   6.151  0.1321  0.3015 -0.0393
    1DIPC   GL1 7515  28.697   5.331   5.831  0.2369 -0.0586  0.2778
    1DIPC   GL2 7516  28.421   5.640   5.653 -0.1424  0.1596  0.1416
    1DIPC   C1A 7517  28.681   5.281   5.400  0.0699  0.0081 -0.1141
    1DIPC   D2A 7518  28.686   5.171   4.944 -0.1282  0.0634 -0.1251
    1DIPC   D3A 7519  28.863   5.386   4.503  0.0696 -0.2828 -0.1523
    1DIPC   C4A 7520  29.217   5.270   4.357 -0.3155  0.2766 -0.0624
    1DIPC   C1B 7521  28.360   5.650   5.180 -0.2187  0.0036 -0.1458
    1DIPC   D2B 7522  28.332   5.518   4.684  0.0502  0.1980 -0.3546
    1DIPC   D3B 7523  27.911   5.598   4.585 -0.0358 -0.1877 -0.0112
    1DIPC   C4B 7524  27.592   6.031   4.512  0.1673  0.2247 -0.1809
    1DIPC   NC3 7525  25.733   9.388   6.200  0.1095  0.0711 -0.3079
    1DIPC   PO4 7526  25.508   9.210   5.895  0.1725 -0.0621 -0.0142
    1DIPC   GL1 7527  25.731   9.177   5.507  0.4768 -0.0603  0.1365
    1DIPC   GL2 7528  26.067   9.130   5.719  0.0054  0.1250  0.1548
    1DIPC   C1A 7529  25.741   9.178   5.115  0.1451  0.3833  0.1040
    1DIPC   D2A 7530  25.945   8.793   4.976  0.1995  0.0733  0.2744
    1DIPC   D3A 7531  25.616   8.929   4.518  0.0037 -0.1779  0.1781
    1DIPC   C4A 7532  25.488   8.904   4.103  0.1216  0.0445 -0.4601
    1DIPC   C1B 7533  26.207   9.055   5.268  0.1219  0.1740 -0.0430
    1DIPC   D2B 7534  26.535   8.942   4.935 -0.4872 -0.2251 -0.1559
    1DIPC   D3B 7535  26.345   8.529   4.732 -0.1594 -0.2003 -0.4616
    1DIPC   C4B 7536  26.424   8.570   4.248 -0.0066 -0.0659 -0.2170
    1DIPC   NC3 7537  26.882  25.455   6.281 -0.1878  0.1119  0.0841
    1DIPC   PO4 7538  27.009  25.018   6.236  0.0721 -0.1680  0.1145
    1DIPC   GL1 7539  26.807  24.637   5.967 -0.0756  0.0150  0.1315
    1DIPC   GL2 7540  26.570  24.676   6.154  0.1151 -0.0724 -0.1008
    1DIPC   C1A 7541  26.651  24.444   5.543  0.1870  0.6495 -0.0196
    1DIPC   D2A 7542  26.372  24.604   5.213  0.0287 -0.0552 -0.2508
    1DIPC   D3A 7543  26.319  24.848   4.797 -0.1800  0.2883 -0.0026
    1DIPC   C4A 7544  26.608  25.109   4.617  0.0430 -0.0349  0.2379
    1DIPC   C1B 7545  26.236  24.425   5.847  0.1593 -0.1161 -0.3193
    1DIPC   D2B 7546  25.833  24.418   5.664 -0.1944 -0.0389 -0.2015
    1DIPC   D3B 7547  25.877  24.419   5.252 -0.1252 -0.1382  0.0570
    1DIPC   C4B 7548  25.424  24.603   5.053 -0.0759  0.2017  0.1891
    1DIPC   NC3 7549  16.517   2.767   7.689 -0.2695  0.3950  0.1990
    1DIPC   PO4 7550  16.885   2.504   7.493  0.3519 -0.1361  0.1056
    1DIPC   GL1 7551  16.898   2.453   7.051 -0.0462  0.1249 -0.1209
    1DIPC   GL2 7552  17.129   2.359   6.772  0.0095 -0.0304  0.1209
    1DIPC   C1A 7553  16.978   2.771   6.633  0.2929  0.2370 -0.1352
    1DIPC   D2A 7554  17.159   2.991   6.284  0.1510 -0.2825  0.2218
    1DIPC   D3A 7555  17.495   2.987   6.123 -0.3126 -0.0566 -0.0517
    1DIPC   C4A 7556  17.682   2.744   5.772  0.0117  0.1760 -0.1032
    1DIPC   C1B 7557  17.463   2.659   6.565 -0.2929  0.2888 -0.2285
    1DIPC   D2B 7558  17.828   2.596   6.294  0.2020 -0.1300 -0.0257
    1DIPC   D3B 7559  17.904   2.319   5.813 -0.0641 -0.0471  0.1481
    1DIPC   C4B 7560  18.071   1.827   5.645  0.1355  0.2973 -0.1728
    1DIPC   NC3 7561  21.491  29.548   6.575 -0.0250 -0.3579  0.2091
    1DIPC   PO4 7562  21.280  29.138   6.501  0.1470 -0.1302 -0.1098
    1DIPC   GL1 7563  21.261  29.229   6.079 -0.0018 -0.1971 -0.1698
    1DIPC   GL2 7564  21.508  29.075   6.011  0.3259 -0.1952 -0.1101
    1DIPC   C1A 7565  20.937  29.251   5.840  0.3127  0.2457  0.3281
    1DIPC   D2A 7566  20.490  29.298   5.805  0.1091  0.0569 -0.1728
    1DIPC   D3A 7567  20.668  29.215   5.365  0.2381  0.1564  0.3200
    1DIPC   C4A 7568  20.788  29.450   4.947 -0.0349  0.2641  0.2969
    1DIPC   C1B 7569  21.627  29.269   5.665 -0.1318  0.0792 -0.1222
    1DIPC   D2B 7570  21.665  29.536   5.354 -0.0412 -0.1948 -0.0811
    1DIPC   D3B 7571  21.504  29.948   5.337 -0.1326 -0.1885  0.0807
    1DIPC   C4B 7572  21.576  30.290   5.075  0.1282  0.1164  0.0335
    1DIPC   NC3 7573  14.145   3.453   7.352  0.0746  0.1236 -0.3088
    1DIPC   PO4 7574  13.773   3.807   7.224 -0.2323  0.0962 -0.1684
    1DIPC   GL1 7575  13.694   3.684   6.809  0.0338  0.0287 -0.1219
    1DIPC   GL2 7576  13.763   3.425   6.631 -0.1975 -0.0999  0.0836
    1DIPC   C1A 7577  13.465   3.802   6.421  0.2784  0.1788 -0.0834
    1DIPC   D2A 7578  13.525   3.800   5.979 -0.0392 -0.2928 -0.0853
    1DIPC   D3A 7579  13.281   3.449   5.717 -0.1659  0.1247 -0.0167
    1DIPC   C4A 7580  12.988   3.508   5.420  0.1171 -0.2877  0.5751
    1DIPC   C1B 7581  13.890   3.589   6.244 -0.0011 -0.0605  0.2123
    1DIPC   D2B 7582  14.251   3.710   6.019 -0.1683  0.2660  0.0572
    1DIPC   D3B 7583  14.423   3.398   5.865  0.4027 -0.1752  0.3322
    1DIPC   C4B 7584  14.888   3.272   5.841 -0.1319 -0.0640 -0.0695
    1DIPC   NC3 7585  13.633   5.985   7.604 -0.2736  0.2233 -0.2220
    1DIPC   PO4 7586  13.882   6.326   7.399  0.2417  0.1489 -0.0225
    1DIPC   GL1 7587  13.773   6.645   7.289 -0.0461  0.0107  0.3713
    1DIPC   GL2 7588  13.519   6.656   7.102  0.1807  0.3949 -0.0811
    1DIPC   C1A 7589  13.986   7.038   7.032  0.1712 -0.3735  0.1361
    1DIPC   D2A 7590  13.817   7.150   6.598  0.1383  0.0336  0.0298
    1DIPC   D3A 7591  13.579   7.045   6.361  0.0740  0.0653  0.2488
    1DIPC   C4A 7592  13.634   6.545   6.243  0.0688  0.2578  0.0886
    1DIPC   C1B 7593  13.767   6.624   6.713 -0.0133  0.2712 -0.1051
    1DIPC   D2B 7594  14.134   6.596   6.577 -0.0663 -0.1333 -0.0439
    1DIPC   D3B 7595  14.039   6.884   6.260  0.2640  0.0920  0.1366
    1DIPC   C4B 7596  13.947   7.329   6.094 -0.1012 -0.1983  0.2206
    1DIPC   NC3 7597  27.949   4.336   6.222 -0.2341 -0.0431 -0.1900
    1DIPC   PO4 7598  28.406   4.323   6.280  0.1163 -0.0760 -0.0273
    1DIPC   GL1 7599  28.460   4.484   5.847 -0.0085 -0.0879 -0.4469
    1DIPC   GL2 7600  28.507   4.776   5.808 -0.0044  0.3588  0.1877
    1DIPC   C1A 7601  28.503   4.315   5.508  0.0838 -0.0273 -0.3601
    1DIPC   D2A 7602  28.189   4.297   5.147  0.4026 -0.0087 -0.2366
    1DIPC   D3A 7603  28.166   3.806   5.064 -0.0676 -0.2238  0.0045
    1DIPC   C4A 7604  27.837   3.631   4.931 -0.1007 -0.2420  0.1863
    1DIPC   C1B 7605  28.794   4.724   5.525  0.1134  0.0089 -0.1483
    1DIPC   D2B 7606  29.083   4.959   5.275  0.1082  0.1902 -0.0563
    1DIPC   D3B 7607  29.480   5.090   5.232 -0.0878 -0.1404  0.0704
    1DIPC   C4B 7608  29.648   5.182   4.824 -0.2256  0.1387  0.0169
    1DIPC   NC3 7609   2.756  29.188   6.830  0.2188 -0.3076  0.0500
    1DIPC   PO4 7610   2.346  28.991   6.915 -0.3130  0.0231 -0.0110
    1DIPC   GL1 7611   2.353  28.771   6.506 -0.1423  0.0542 -0.3191
    1DIPC   GL2 7612   2.152  28.594   6.369 -0.1059  0.3973 -0.0460
    1DIPC   C1A 7613   2.454  28.951   6.022 -0.0503  0.1338  0.0652
    1DIPC   D2A 7614   2.347  29.130   5.601  0.0963  0.4021 -0.1421
    1DIPC   D3A 7615   2.597  29.419   5.700  0.2501  0.3437 -0.1981
    1DIPC   C4A 7616   2.715  29.361   5.183  0.0643  0.1068 -0.2329
    1DIPC   C1B 7617   2.503  28.352   6.057 -0.1624 -0.2299  0.0606
    1DIPC   D2B 7618   2.770  28.013   6.083  0.2526 -0.0074  0.4930
    1DIPC   D3B 7619   2.942  28.334   5.758 -0.2622 -0.1015  0.1728
    1DIPC   C4B 7620   3.460  28.367   5.686  0.2387  0.3603  0.1847
    1DIPC   NC3 7621   1.241   5.293   6.551  0.0036 -0.3203 -0.1690
    1DIPC   PO4 7622   1.139   4.880   6.735  0.0355 -0.1136 -0.0486
    1DIPC   GL1 7623   1.205   4.811   6.313  0.0546  0.3197  0.0098
    1DIPC   GL2 7624   1.041   5.064   6.148 -0.1820  0.0212  0.0548
    1DIPC   C1A 7625   1.503   4.801   5.950 -0.1679  0.0486  0.0992
    1DIPC   D2A 7626   1.793   5.042   5.849 -0.0768 -0.2432 -0.0496
    1DIPC   D3A 7627   1.867   4.868   5.473 -0.2998 -0.2188 -0.3067
    1DIPC   C4A 7628   2.142   4.516   5.421 -0.2926 -0.2374 -0.0206
    1DIPC   C1B 7629   0.861   4.882   5.812  0.2278  0.3816 -0.0718
    1DIPC   D2B 7630   0.719   4.650   5.476  0.0494 -0.0807 -0.1955
    1DIPC   D3B 7631   0.412   4.438   5.422  0.2059 -0.0559 -0.1424
    1DIPC   C4B 7632   0.089   4.210   5.285  0.0348  0.1875  0.2365
    1DIPC   NC3 7633  24.750   4.219   6.384  0.0930 -0.0751  0.1245
    1DIPC   PO4 7634  25.050   4.220   6.245  0.0533  0.2153 -0.2804
    1DIPC   GL1 7635  25.235   4.103   5.854 -0.0038 -0.0392 -0.0727
    1DIPC   GL2 7636  25.505   4.299   5.916 -0.0268 -0.0023  0.0194
    1DIPC   C1A 7637  25.175   4.095   5.401 -0.1805  0.1096  0.0820
    1DIPC   D2A 7638  24.946   4.158   5.072  0.1090  0.3515 -0.3588
    1DIPC   D3A 7639  25.285   4.024   4.781 -0.1538 -0.0436 -0.1535
    1DIPC   C4A 7640  25.654   3.693   4.713 -0.1479 -0.1402 -0.0402
    1DIPC   C1B 7641  25.548   4.410   5.507  0.2584  0.0012 -0.0308
    1DIPC   D2B 7642  25.431   4.374   5.038  0.2490 -0.1579  0.1917
    1DIPC   D3B 7643  25.406   4.647   4.683 -0.0818 -0.1521 -0.0180
    1DIPC   C4B 7644  25.509   4.687   4.305  0.0968  0.0124  0.0527
    1DIPC   NC3 7645  22.346  21.431   6.193  0.1367 -0.3012 -0.2159
    1DIPC   PO4 7646  21.932  21.623   6.346  0.2981  0.4661 -0.2146
    1DIPC   GL1 7647  21.857  21.654   5.917  0.1060  0.0237 -0.1430
    1DIPC   GL2 7648  22.066  21.568   5.781  0.0726  0.4163  0.0250
    1DIPC   C1A 7649  21.540  21.546   5.564 -0.5154 -0.1139  0.3211
    1DIPC   D2A 7650  21.362  21.628   5.228  0.1754  0.0486  0.1450
    1DIPC   D3A 7651  21.321  21.345   4.887  0.3240  0.1010  0.0962
    1DIPC   C4A 7652  21.224  21.356   4.424 -0.2174 -0.4091 -0.1156
    1DIPC   C1B 7653  22.086  21.400   5.385  0.1781  0.3142  0.1528
    1DIPC   D2B 7654  21.771  21.496   5.024  0.0518  0.1968  0.1252
    1DIPC   D3B 7655  22.102  21.378   4.841 -0.0950  0.1147 -0.0087
    1DIPC   C4B 7656  22.319  21.360   4.398 -0.1685 -0.4126  0.0564
    1DIPC   NC3 7657  21.899  15.878   6.053  0.1790 -0.1141  0.2957
    1DIPC   PO4 7658  22.271  16.066   6.100 -0.0161 -0.0573  0.5907
    1DIPC   GL1 7659  21.953  16.388   5.921  0.3048 -0.2689 -0.0667
    1DIPC   GL2 7660  22.050  16.819   5.853  0.2171 -0.0193  0.0823
    1DIPC   C1A 7661  21.780  16.454   5.606 -0.3342 -0.2788  0.2484
    1DIPC   D2A 7662  21.857  16.442   5.088 -0.1118  0.2869  0.0599
    1DIPC   D3A 7663  21.901  16.674   4.761  0.2095  0.2116  0.2277
    1DIPC   C4A 7664  21.936  17.042   4.681 -0.3138  0.0582  0.0135
    1DIPC   C1B 7665  22.083  17.224   5.580 -0.1576 -0.1478 -0.2490
    1DIPC   D2B 7666  21.797  17.428   5.398  0.0179  0.1292  0.0463
    1DIPC   D3B 7667  21.850  17.458   4.902 -0.0730  0.0577  0.1217
    1DIPC   C4B 7668  21.494  17.628   4.738 -0.1921  0.0858  0.0001
    1DIPC   NC3 7669  10.809   3.176   7.463 -0.2473  0.0622 -0.0365
    1DIPC   PO4 7670  10.630   3.646   7.428  0.0518  0.0519  0.0679
    1DIPC   GL1 7671  10.655   3.679   6.926  0.3443  0.0387  0.1037
    1DIPC   GL2 7672  10.380   3.524   6.744 -0.0800 -0.0358 -0.4024
    1DIPC   C1A 7673  11.012   3.596   6.680  0.3088 -0.2138  0.1839
    1DIPC   D2A 7674  11.278   3.516   6.222 -0.1802  0.1697 -0.0500
    1DIPC   D3A 7675  11.123   3.114   6.435 -0.0518 -0.0350  0.0790
    1DIPC   C4A 7676  10.647   2.992   6.361  0.2751 -0.0463 -0.2873
    1DIPC   C1B 7677  10.676   3.457   6.309  0.0500 -0.1133  0.2559
    1DIPC   D2B 7678  10.840   3.508   5.980  0.0659 -0.1405 -0.2530
    1DIPC   D3B 7679  10.582   3.175   5.854  0.4028 -0.1634 -0.0694
    1DIPC   C4B 7680  10.701   2.797   5.515 -0.3180 -0.2202  0.1541
    1DIPC   NC3 7681  16.655  29.749   6.793  0.0124  0.0931 -0.1288
    1DIPC   PO4 7682  17.109  29.853   7.024  0.2828  0.0547 -0.1147
    1DIPC   GL1 7683  17.064  29.828   6.532 -0.0380 -0.1169  0.1351
    1DIPC   GL2 7684  16.785  30.100   6.481  0.2002  0.0200 -0.0906
    1DIPC   C1A 7685  17.174  29.816   6.047  0.0212  0.2063  0.2955
    1DIPC   D2A 7686  17.367  29.505   5.829  0.0820 -0.1555  0.2648
    1DIPC   D3A 7687  17.374  29.229   5.479 -0.0889 -0.0877  0.0798
    1DIPC   C4A 7688  17.675  29.313   5.221 -0.1201  0.1340  0.0802
    1DIPC   C1B 7689  16.926  30.373   6.205 -0.2061  0.1741 -0.1099
    1DIPC   D2B 7690  17.336  30.667   6.285 -0.0469 -0.0647 -0.0187
    1DIPC   D3B 7691  17.502  30.428   6.103  0.0930  0.1145  0.0568
    1DIPC   C4B 7692  17.343  30.263   5.741  0.2907 -0.0717  0.1645
    1DIPC   NC3 7693  25.045  20.428   6.642 -0.0289 -0.1664  0.1620
    1DIPC   PO4 7694  24.974  20.147   6.268 -0.1081 -0.1016 -0.2694
    1DIPC   GL1 7695  24.946  20.243   5.805  0.1768  0.2233 -0.0128
    1DIPC   GL2 7696  24.672  20.392   5.561 -0.4928  0.0621 -0.0775
    1DIPC   C1A 7697  25.124  20.232   5.346 -0.3299 -0.2918  0.1368
    1DIPC   D2A 7698  25.427  20.295   5.097  0.0209  0.0918 -0.1850
    1DIPC   D3A 7699  25.103  20.483   4.908  0.2848 -0.0392 -0.1357
    1DIPC   C4A 7700  24.784  20.324   4.763 -0.0442  0.0663  0.1816
    1DIPC   C1B 7701  24.519  20.633   5.244 -0.0540  0.1430  0.0811
    1DIPC   D2B 7702  24.387  20.748   4.803  0.1017  0.3678 -0.2074
    1DIPC   D3B 7703  24.720  20.844   4.600  0.1634  0.0595 -0.3837
    1DIPC   C4B 7704  24.857  20.795   4.106  0.1752 -0.0463 -0.2415
    1DIPC   NC3 7705  22.634  17.887   6.358  0.0233 -0.1334  0.0405
    1DIPC   PO4 7706  22.285  18.064   6.154  0.1747  0.0445  0.2744
    1DIPC   GL1 7707  21.958  18.135   5.972  0.0998 -0.0294  0.1289
    1DIPC   GL2 7708  21.614  17.965   6.049  0.3898  0.0812  0.2389
    1DIPC   C1A 7709  22.017  17.887   5.542  0.0279 -0.2008  0.0320
    1DIPC   D2A 7710  21.995  17.930   5.074  0.2068  0.2300 -0.3189
    1DIPC   D3A 7711  21.488  18.054   5.020 -0.0474 -0.1821  0.0462
    1DIPC   C4A 7712  21.247  18.364   5.182  0.0520 -0.2734  0.0905
    1DIPC   C1B 7713  21.179  17.898   5.834  0.3102  0.1533 -0.3021
    1DIPC   D2B 7714  20.897  18.052   5.609 -0.1409 -0.0902  0.0323
    1DIPC   D3B 7715  21.114  17.851   5.189  0.3260 -0.1187  0.3825
    1DIPC   C4B 7716  21.344  17.394   5.170  0.3208  0.2401  0.0145
    1DIPC   NC3 7717   1.386  10.059   6.083 -0.0279  0.1967  0.0515
    1DIPC   PO4 7718   1.430   9.696   6.017 -0.0541  0.1185  0.1098
    1DIPC   GL1 7719   1.659   9.853   5.637 -0.3183 -0.1651  0.2055
    1DIPC   GL2 7720   1.913   9.658   5.725  0.0232  0.1350 -0.1333
    1DIPC   C1A 7721   1.396   9.809   5.260 -0.0542  0.0310 -0.2571
    1DIPC   D2A 7722   1.453   9.723   4.893 -0.1755 -0.0965 -0.1290
    1DIPC   D3A 7723   1.079   9.683   4.812  0.1504  0.0118 -0.0591
    1DIPC   C4A 7724   0.789   9.848   4.451 -0.0798  0.1421  0.0249
    1DIPC   C1B 7725   2.017   9.931   5.317 -0.0847  0.2526 -0.1873
    1DIPC   D2B 7726   1.970   9.893   4.872 -0.5044 -0.4546  0.1619
    1DIPC   D3B 7727   1.646  10.153   4.756 -0.1444 -0.0406 -0.5410
    1DIPC   C4B 7728   1.337  10.016   4.478 -0.3527  0.2455 -0.2047
    1DIPC   NC3 7729  24.694   8.043   6.962  0.2065  0.1996  0.0449
    1DIPC   PO4 7730  24.380   7.713   6.857 -0.0866  0.3586  0.1258
    1DIPC   GL1 7731  24.178   7.519   6.432 -0.0790 -0.3072 -0.0226
    1DIPC   GL2 7732  23.960   7.631   6.216 -0.0297  0.0206  0.1755
    1DIPC   C1A 7733  24.407   7.523   6.056 -0.4941  0.1604 -0.3023
    1DIPC   D2A 7734  24.613   7.612   5.633 -0.0051 -0.0815 -0.0651
    1DIPC   D3A 7735  24.324   7.969   5.648 -0.1168 -0.1911 -0.2130
    1DIPC   C4A 7736  24.101   8.107   5.997  0.0371  0.1176 -0.1015
    1DIPC   C1B 7737  24.022   7.646   5.751  0.0359  0.1412  0.0917
    1DIPC   D2B 7738  24.171   7.630   5.311 -0.1460  0.2103  0.1664
    1DIPC   D3B 7739  24.020   8.014   5.166  0.0097 -0.0365  0.1038
    1DIPC   C4B 7740  23.940   8.462   5.384 -0.3747 -0.0120 -0.1290
    1DIPC   NC3 7741  29.870  23.636   5.836  0.0167 -0.2412 -0.1056
    1DIPC   PO4 7742  29.490  23.493   6.323 -0.1958  0.0602  0.1262
    1DIPC   GL1 7743  29.339  23.586   5.885  0.3447  0.2299 -0.1004
    1DIPC   GL2 7744  29.103  23.358   5.711  0.0980  0.2317 -0.2268
    1DIPC   C1A 7745  29.252  23.706   5.389  0.1886 -0.0459 -0.1178
    1DIPC   D2A 7746  29.040  23.649   4.990 -0.3441 -0.3486  0.1718
    1DIPC   D3A 7747  28.909  23.906   4.827 -0.3070 -0.0969  0.2611
    1DIPC   C4A 7748  28.799  24.015   4.369  0.0896 -0.0458 -0.0563
    1DIPC   C1B 7749  28.904  23.099   5.351 -0.1846  0.1338 -0.0264
    1DIPC   D2B 7750  28.953  23.186   4.885 -0.1495 -0.1208 -0.0230
    1DIPC   D3B 7751  29.247  22.824   4.946  0.2586  0.1730 -0.2679
    1DIPC   C4B 7752  29.512  22.800   5.301 -0.0628  0.2041  0.2477
    1DIPC   NC3 7753   1.018   7.180   6.497  0.1938 -0.1832 -0.0141
    1DIPC   PO4 7754   0.559   7.086   6.471 -0.2525 -0.1386 -0.0282
    1DIPC   GL1 7755   0.825   7.192   6.016  0.2183  0.0414 -0.3937
    1DIPC   GL2 7756   1.151   6.867   6.048 -0.0190  0.1084 -0.1620
    1DIPC   C1A 7757   0.639   7.268   5.611  0.2316 -0.0839  0.3608
    1DIPC   D2A 7758   0.684   7.594   5.229  0.3015  0.0466  0.1661
    1DIPC   D3A 7759   0.869   7.419   4.852 -0.1508  0.3318 -0.0258
    1DIPC   C4A 7760   0.876   7.664   4.382 -0.0064  0.0076 -0.3708
    1DIPC   C1B 7761   1.229   6.786   5.656  0.1878  0.2853  0.2833
    1DIPC   D2B 7762   1.031   6.648   5.316 -0.0964 -0.2749 -0.1029
    1DIPC   D3B 7763   1.234   6.330   5.045  0.1878  0.1689  0.3252
    1DIPC   C4B 7764   1.509   6.517   4.809  0.0401 -0.1084  0.1781
    1DIPC   NC3 7765  15.788   5.009   7.296 -0.1762  0.1690 -0.0380
    1DIPC   PO4 7766  15.964   4.661   7.417  0.3454  0.0202  0.1769
    1DIPC   GL1 7767  15.996   4.520   6.988  0.0675  0.1650 -0.2075
    1DIPC   GL2 7768  15.764   4.218   6.900  0.0259 -0.2116 -0.1888
    1DIPC   C1A 7769  15.959   4.524   6.514  0.1633  0.0924 -0.0273
    1DIPC   D2A 7770  15.994   4.342   6.079  0.1664 -0.2674 -0.3018
    1DIPC   D3A 7771  16.239   4.055   5.696  0.2322 -0.0018 -0.0137
    1DIPC   C4A 7772  16.537   3.788   5.818  0.2988 -0.2426  0.2348
    1DIPC   C1B 7773  15.610   4.111   6.394 -0.0348 -0.1121  0.1765
    1DIPC   D2B 7774  15.410   4.210   5.924 -0.0269 -0.0442 -0.2126
    1DIPC   D3B 7775  15.182   3.819   5.862 -0.1074 -0.2154  0.2103
    1DIPC   C4B 7776  15.486   3.455   5.754  0.2964  0.1871  0.1688
    1DIPC   NC3 7777   0.315   3.400   6.661  0.1503  0.0599  0.2114
    1DIPC   PO4 7778   0.248   2.974   6.559 -0.3298  0.0569  0.0052
    1DIPC   GL1 7779   0.283   2.843   6.055  0.1736  0.2551 -0.0062
    1DIPC   GL2 7780   0.454   2.618   6.140 -0.2709 -0.0157 -0.1246
    1DIPC   C1A 7781   0.160   2.996   5.809 -0.2435  0.0448  0.1314
    1DIPC   D2A 7782   0.434   3.117   5.470 -0.1653  0.1659  0.1850
    1DIPC   D3A 7783   0.859   2.944   5.381  0.4493  0.1575 -0.2775
    1DIPC   C4A 7784   1.351   3.137   5.575  0.2392  0.2518 -0.2664
    1DIPC   C1B 7785   0.293   2.442   5.724 -0.0772 -0.2567 -0.0974
    1DIPC   D2B 7786   0.146   2.643   5.388 -0.0508  0.1083 -0.0611
    1DIPC   D3B 7787   0.167   2.853   5.038  0.1966  0.0230  0.1471
    1DIPC   C4B 7788   0.550   2.893   4.797 -0.0698  0.3482  0.0984
    1DIPC   NC3 7789  19.559   4.883   7.457  0.1598  0.1054 -0.0898
    1DIPC   PO4 7790  19.447   4.478   7.259 -0.0616 -0.0840  0.1492
    1DIPC   GL1 7791  19.404   4.412   6.800 -0.1806 -0.1084 -0.1355
    1DIPC   GL2 7792  19.219   4.631   6.800  0.1315  0.0553 -0.2004
    1DIPC   C1A 7793  19.316   4.075   6.579  0.0676  0.0260 -0.0675
    1DIPC   D2A 7794  19.374   3.983   6.246 -0.4790  0.1484  0.0249
    1DIPC   D3A 7795  19.327   3.560   6.056  0.1792  0.0243 -0.1234
    1DIPC   C4A 7796  19.520   3.567   5.631  0.2430 -0.0937  0.0418
    1DIPC   C1B 7797  18.966   4.752   6.419  0.2393  0.0266  0.0581
    1DIPC   D2B 7798  18.739   4.815   6.016 -0.0436 -0.1428  0.0117
    1DIPC   D3B 7799  18.561   5.148   5.774 -0.0623 -0.2112  0.1575
    1DIPC   C4B 7800  18.258   5.138   5.561  0.1889  0.0688  0.4168
    1DIPC   NC3 7801  23.562  24.217   6.362 -0.0505 -0.2489  0.1809
    1DIPC   PO4 7802  23.203  24.384   6.555  0.0883  0.0834  0.0649
    1DIPC   GL1 7803  22.805  24.568   6.271 -0.3095 -0.0725 -0.1430
    1DIPC   GL2 7804  22.870  24.905   6.355  0.3535 -0.1649  0.0482
    1DIPC   C1A 7805  22.486  24.578   6.053 -0.0237  0.2936 -0.1760
    1DIPC   D2A 7806  22.292  24.861   5.740  0.0197 -0.2755  0.1044
    1DIPC   D3A 7807  22.222  24.745   5.294 -0.3817  0.1650  0.0147
    1DIPC   C4A 7808  22.486  24.673   4.970 -0.2418 -0.0078  0.1408
    1DIPC   C1B 7809  22.831  24.880   5.875  0.2390 -0.1604 -0.4773
    1DIPC   D2B 7810  23.207  24.892   5.523  0.1948 -0.3917 -0.1829
    1DIPC   D3B 7811  23.475  24.789   5.372 -0.3256  0.1868  0.3883
    1DIPC   C4B 7812  23.496  24.538   5.170  0.0241  0.0799  0.0797
    1DIPC   NC3 7813   1.073  26.491   6.193 -0.0920 -0.0454  0.3590
    1DIPC   PO4 7814   0.672  26.340   6.156 -0.0151  0.2051  0.0760
    1DIPC   GL1 7815   0.414  26.490   5.936  0.2113  0.1344  0.0213
    1DIPC   GL2 7816   0.377  26.189   5.768  0.0687 -0.1068 -0.0388
    1DIPC   C1A 7817   0.203  26.617   5.641  0.1890  0.2685 -0.2279
    1DIPC   D2A 7818  -0.096  26.817   5.349 -0.0505 -0.1215  0.1454
    1DIPC   D3A 7819   0.055  27.172   5.615 -0.2705  0.3014 -0.2480
    1DIPC   C4A 7820   0.298  27.024   5.898 -0.0064  0.1816 -0.0226
    1DIPC   C1B 7821   0.392  26.146   5.393 -0.2865  0.2488  0.0270
    1DIPC   D2B 7822   0.467  26.121   4.960  0.0327  0.3259 -0.3171
    1DIPC   D3B 7823   0.233  26.419   5.075 -0.0505 -0.0129 -0.0253
    1DIPC   C4B 7824   0.399  26.849   5.190 -0.0532 -0.2039  0.3530
    1DIPC   NC3 7825   9.715  29.122   7.133  0.0385  0.0302  0.0903
    1DIPC   PO4 7826   9.982  28.817   6.939 -0.1193 -0.1602  0.0882
    1DIPC   GL1 7827   9.947  28.993   6.575  0.0660  0.5531  0.1129
    1DIPC   GL2 7828  10.301  28.996   6.370  0.2765  0.1847 -0.0036
    1DIPC   C1A 7829   9.892  29.112   6.124 -0.0996  0.3387  0.1452
    1DIPC   D2A 7830  10.027  29.091   5.615 -0.3207  0.1443  0.0485
    1DIPC   D3A 7831  10.128  28.652   5.642 -0.1143 -0.4102  0.0866
    1DIPC   C4A 7832  10.443  28.474   5.968  0.2692  0.3143 -0.0809
    1DIPC   C1B 7833  10.757  29.112   6.172 -0.2780 -0.0264 -0.2892
    1DIPC   D2B 7834  10.904  29.189   5.805  0.1139  0.0317 -0.0868
    1DIPC   D3B 7835  10.591  29.232   5.483 -0.0280  0.2633 -0.2301
    1DIPC   C4B 7836  10.732  29.455   5.132  0.2232 -0.3964  0.0465
    1DIPC   NC3 7837   0.304   5.381   6.742 -0.1928 -0.0530  0.0762
    1DIPC   PO4 7838   0.098   5.546   6.403  0.0651 -0.2618  0.1213
    1DIPC   GL1 7839  -0.071   5.501   6.027 -0.2129  0.1214  0.1140
    1DIPC   GL2 7840  -0.179   5.236   6.032 -0.1442 -0.0097 -0.1896
    1DIPC   C1A 7841  -0.006   5.622   5.565  0.0171 -0.2973  0.2646
    1DIPC   D2A 7842   0.022   5.741   5.141  0.0437  0.1139  0.1356
    1DIPC   D3A 7843  -0.031   5.594   4.700 -0.3687  0.2900 -0.1385
    1DIPC   C4A 7844   0.084   5.432   4.238  0.4416 -0.1880  0.1831
    1DIPC   C1B 7845   0.211   5.115   5.807  0.1895 -0.2598  0.0488
    1DIPC   D2B 7846   0.539   5.294   5.620  0.1015 -0.1833  0.0182
    1DIPC   D3B 7847   0.644   5.101   5.313  0.1664 -0.0873 -0.0248
    1DIPC   C4B 7848   0.729   5.235   4.877 -0.0126 -0.0783 -0.1787
    1DIPC   NC3 7849  10.501   4.252   6.858 -0.1828  0.1327  0.1297
    1DIPC   PO4 7850  10.162   3.952   6.771  0.0095  0.1085 -0.0923
    1DIPC   GL1 7851  10.246   4.197   6.384 -0.3480  0.1123  0.0307
    1DIPC   GL2 7852   9.933   4.177   6.296  0.2311 -0.1075 -0.0702
    1DIPC   C1A 7853  10.345   4.342   5.955 -0.0219  0.0417  0.0978
    1DIPC   D2A 7854  10.238   4.647   5.654  0.1743  0.2822  0.0590
    1DIPC   D3A 7855  10.205   4.879   6.055  0.1256  0.2462  0.1716
    1DIPC   C4A 7856   9.784   5.084   6.185 -0.1075 -0.3825  0.3034
    1DIPC   C1B 7857   9.842   4.480   6.003 -0.0199  0.1294  0.0249
    1DIPC   D2B 7858   9.791   4.480   5.689 -0.1549 -0.0295 -0.3135
    1DIPC   D3B 7859   9.426   4.683   5.371 -0.0269 -0.1109 -0.0705
    1DIPC   C4B 7860   9.242   4.333   5.183 -0.0925  0.1364  0.0435
    1DIPC   NC3 7861  17.674   1.553   7.064 -0.2499  0.2142  0.2096
    1DIPC   PO4 7862  17.205   1.828   6.886  0.0423 -0.2660 -0.0489
    1DIPC   GL1 7863  17.226   1.564   6.555 -0.0252  0.0374  0.1664
    1DIPC   GL2 7864  17.522   1.375   6.542  0.1587  0.1623  0.1166
    1DIPC   C1A 7865  17.010   1.408   6.178 -0.0974  0.4041  0.0587
    1DIPC   D2A 7866  17.095   1.696   5.796  0.3261  0.2900  0.0470
    1DIPC   D3A 7867  17.581   1.544   5.694 -0.0080  0.0031 -0.1126
    1DIPC   C4A 7868  17.744   1.192   5.429 -0.1471 -0.2378  0.1242
    1DIPC   C1B 7869  17.551   1.588   6.167  0.0162 -0.2771 -0.1169
    1DIPC   D2B 7870  17.909   1.799   6.106  0.0023  0.2354  0.1313
    1DIPC   D3B 7871  17.537   2.023   5.859  0.2243 -0.2839 -0.1602
    1DIPC   C4B 7872  17.220   2.091   6.271  0.1764 -0.0980 -0.1589
    1DIPC   NC3 7873  29.682  27.020   6.817  0.0598  0.2341  0.1083
    1DIPC   PO4 7874  29.939  26.712   6.852  0.0300 -0.0975 -0.2307
    1DIPC   GL1 7875  30.059  26.995   6.409  0.1380  0.0992  0.4038
    1DIPC   GL2 7876  30.057  26.884   6.129 -0.2706 -0.3216 -0.2878
    1DIPC   C1A 7877  30.137  27.338   6.103  0.2658 -0.0939  0.2740
    1DIPC   D2A 7878  29.936  27.671   6.222  0.3396  0.1364  0.2148
    1DIPC   D3A 7879  29.547  27.785   5.910 -0.0943  0.3288  0.0511
    1DIPC   C4A 7880  29.439  28.212   5.854 -0.1183  0.3449  0.1272
    1DIPC   C1B 7881  29.844  26.865   5.739  0.1463  0.1714 -0.4711
    1DIPC   D2B 7882  29.714  27.197   5.397 -0.3721  0.1782 -0.1170
    1DIPC   D3B 7883  29.857  27.222   4.926  0.3661 -0.0393 -0.1418
    1DIPC   C4B 7884  29.546  27.315   4.522 -0.1470 -0.2022 -0.0895
    1DIPC   NC3 7885  24.260  17.395   6.214  0.1356 -0.2214  0.1371
    1DIPC   PO4 7886  23.863  17.364   5.833 -0.1056  0.1468  0.0267
    1DIPC   GL1 7887  23.861  17.476   5.484 -0.3484  0.1343  0.0760
    1DIPC   GL2 7888  23.979  17.685   5.434  0.3359 -0.2612 -0.2092
    1DIPC   C1A 7889  23.422  17.567   5.400 -0.1027  0.3431 -0.2768
    1DIPC   D2A 7890  23.124  17.222   5.419 -0.1238 -0.3404  0.0959
    1DIPC   D3A 7891  23.272  17.383   4.946  0.1152  0.2624 -0.2278
    1DIPC   C4A 7892  23.611  17.535   4.831  0.1635  0.1445  0.0509
    1DIPC   C1B 7893  24.252  17.930   5.295  0.3277 -0.1199  0.1603
    1DIPC   D2B 7894  24.454  18.130   4.988  0.0983  0.1032 -0.2904
    1DIPC   D3B 7895  24.549  17.733   4.691  0.2971  0.1626  0.1865
    1DIPC   C4B 7896  24.323  17.741   4.274  0.4892  0.0041  0.1707
    1DIPC   NC3 7897  24.799  19.638   6.363  0.1291 -0.5020 -0.0882
    1DIPC   PO4 7898  24.592  19.339   5.928  0.1930  0.1383 -0.1784
    1DIPC   GL1 7899  24.527  19.516   5.506  0.1977  0.1256 -0.1079
    1DIPC   GL2 7900  24.519  19.861   5.470  0.1255 -0.0330  0.2808
    1DIPC   C1A 7901  24.278  19.457   5.137 -0.1217  0.1513 -0.2962
    1DIPC   D2A 7902  23.984  19.396   4.881  0.2189 -0.0471  0.1313
    1DIPC   D3A 7903  24.051  19.773   4.813 -0.3521  0.0096 -0.0917
    1DIPC   C4A 7904  24.041  19.844   4.389 -0.0744 -0.0499 -0.0391
    1DIPC   C1B 7905  24.418  20.095   5.093  0.0200 -0.1391 -0.0542
    1DIPC   D2B 7906  24.076  20.337   4.921 -0.0190 -0.3826  0.0643
    1DIPC   D3B 7907  24.217  20.334   4.481  0.2977  0.1973 -0.1760
    1DIPC   C4B 7908  24.562  20.482   4.322 -0.1967  0.0469  0.0800
    1DIPC   NC3 7909  29.333   2.718   7.286  0.3281 -0.0508 -0.1168
    1DIPC   PO4 7910  29.211   2.926   6.848  0.1412 -0.0793 -0.3313
    1DIPC   GL1 7911  29.426   2.783   6.505 -0.3494 -0.1236 -0.0410
    1DIPC   GL2 7912  29.702   2.843   6.402  0.0024 -0.0246 -0.1097
    1DIPC   C1A 7913  29.474   2.591   6.052 -0.1008  0.1134 -0.0113
    1DIPC   D2A 7914  29.296   2.461   5.686 -0.0427 -0.1398  0.0631
    1DIPC   D3A 7915  29.257   2.902   5.570  0.0973  0.2502  0.1997
    1DIPC   C4A 7916  28.920   3.150   5.303  0.0379 -0.1879  0.0765
    1DIPC   C1B 7917  29.832   2.953   6.000 -0.0629 -0.1027 -0.0164
    1DIPC   D2B 7918  29.694   3.014   5.623 -0.1273  0.1165  0.2963
    1DIPC   D3B 7919  29.844   2.796   5.200  0.3458 -0.2311 -0.0931
    1DIPC   C4B 7920  29.498   2.538   4.908 -0.0398  0.0169 -0.0748
    1DIPC   NC3 7921  27.702  24.514   6.781 -0.0332  0.1199 -0.1461
    1DIPC   PO4 7922  27.815  24.261   6.496  0.2789  0.3949  0.1353
    1DIPC   GL1 7923  27.611  24.362   6.083 -0.2873  0.2022  0.0249
    1DIPC   GL2 7924  27.467  24.021   5.891  0.2149  0.3389  0.1069
    1DIPC   C1A 7925  27.762  24.757   5.774 -0.1018  0.0009  0.2143
    1DIPC   D2A 7926  27.527  24.849   5.410  0.2505 -0.1058 -0.2002
    1DIPC   D3A 7927  27.447  24.884   4.869 -0.0276  0.3054 -0.2145
    1DIPC   C4A 7928  27.612  24.609   4.512  0.0483  0.0964  0.3091
    1DIPC   C1B 7929  27.388  24.333   5.527 -0.4107  0.2409 -0.0264
    1DIPC   D2B 7930  27.114  24.492   5.206 -0.2186  0.2805  0.3063
    1DIPC   D3B 7931  27.347  24.369   4.845 -0.0040 -0.1347  0.0615
    1DIPC   C4B 7932  27.592  24.078   5.042  0.1945 -0.2953 -0.1039
    1DIPC   NC3 7933  26.420  25.020   6.505  0.4188 -0.2577 -0.1727
    1DIPC   PO4 7934  26.397  25.411   6.389  0.0003 -0.1164 -0.0697
    1DIPC   GL1 7935  26.114  25.297   6.051 -0.2558  0.2319  0.1312
    1DIPC   GL2 7936  26.150  24.904   5.966  0.2268 -0.1708  0.1088
    1DIPC   C1A 7937  26.251  25.283   5.591 -0.1356  0.2248  0.0587
    1DIPC   D2A 7938  26.316  25.217   5.185  0.2994  0.2757  0.2183
    1DIPC   D3A 7939  26.748  25.399   5.174  0.1184  0.2902  0.3179
    1DIPC   C4A 7940  26.823  25.526   5.549 -0.0598  0.2795 -0.5068
    1DIPC   C1B 7941  26.063  24.809   5.510 -0.1533 -0.0533 -0.0156
    1DIPC   D2B 7942  25.873  24.867   5.076 -0.1870  0.3587 -0.2420
    1DIPC   D3B 7943  25.601  24.896   5.440 -0.1091 -0.0918 -0.0441
    1DIPC   C4B 7944  25.591  24.830   5.846 -0.1072  0.0575  0.0063
    1DIPC   NC3 7945  20.986   0.082   6.922  0.2241  0.2821  0.0941
    1DIPC   PO4 7946  21.068   0.099   6.455 -0.1939  0.1153 -0.2455
    1DIPC   GL1 7947  21.262   0.356   6.186 -0.1738  0.2985  0.0032
    1DIPC   GL2 7948  20.883   0.531   6.172 -0.2358 -0.2845  0.1602
    1DIPC   C1A 7949  21.291   0.635   5.803  0.1168 -0.0290 -0.3299
    1DIPC   D2A 7950  21.308   0.725   5.372 -0.2019  0.0263 -0.0382
    1DIPC   D3A 7951  21.234   0.729   4.907 -0.1980  0.3708  0.2683
    1DIPC   C4A 7952  21.361   0.881   4.610  0.0748 -0.0496 -0.0804
    1DIPC   C1B 7953  20.823   0.462   5.727 -0.2217 -0.0048 -0.2379
    1DIPC   D2B 7954  20.869   0.579   5.404  0.0197  0.2017 -0.2705
    1DIPC   D3B 7955  20.958   0.338   5.010  0.0836 -0.2140  0.1441
    1DIPC   C4B 7956  21.229   0.214   4.697  0.0392 -0.0108 -0.3709
    1DIPC   NC3 7957   1.023  13.514   5.676 -0.1743  0.0874  0.1707
    1DIPC   PO4 7958   0.601  13.701   5.539 -0.1829 -0.2088  0.2601
    1DIPC   GL1 7959   0.462  13.566   5.040  0.2086  0.0824 -0.1625
    1DIPC   GL2 7960   0.723  13.694   4.791  0.1076 -0.0203 -0.0833
    1DIPC   C1A 7961   0.343  13.423   4.688  0.1144 -0.4560  0.0012
    1DIPC   D2A 7962   0.426  13.433   4.163 -0.2321 -0.1234  0.0656
    1DIPC   D3A 7963   0.186  13.334   3.784 -0.2202  0.0643  0.1425
    1DIPC   C4A 7964  -0.198  13.093   3.763  0.1312 -0.2005 -0.0500
    1DIPC   C1B 7965   0.790  13.372   4.516 -0.2679  0.4116 -0.0355
    1DIPC   D2B 7966   1.021  13.022   4.385 -0.0830  0.3921  0.1626
    1DIPC   D3B 7967   1.355  12.885   4.133 -0.4236 -0.3346 -0.1170
    1DIPC   C4B 7968   1.408  12.495   3.984  0.0349 -0.1936  0.3692
    1DIPC   NC3 7969   4.893   1.022   7.302 -0.0540 -0.3721  0.0120
    1DIPC   PO4 7970   5.332   1.114   7.188 -0.0619 -0.0410 -0.1300
    1DIPC   GL1 7971   5.151   1.151   6.770  0.0234 -0.1229 -0.1769
    1DIPC   GL2 7972   5.404   1.288   6.637  0.3905  0.1304 -0.0461
    1DIPC   C1A 7973   4.955   1.420   6.457  0.0042 -0.1379 -0.0708
    1DIPC   D2A 7974   4.597   1.441   6.100  0.3067 -0.0949 -0.0425
    1DIPC   D3A 7975   4.435   1.596   6.404  0.0531 -0.0380 -0.0160
    1DIPC   C4A 7976   4.310   2.044   6.247  0.0997  0.3164  0.2434
    1DIPC   C1B 7977   5.365   1.101   6.260  0.0862  0.0488 -0.1326
    1DIPC   D2B 7978   5.312   1.025   5.791  0.0979  0.1121 -0.3889
    1DIPC   D3B 7979   5.749   0.758   5.626  0.1828 -0.3792  0.0425
    1DIPC   C4B 7980   5.793   0.353   5.510  0.0674  0.1071 -0.2496
    1DIPC   NC3 7981  28.367  14.802   5.331  0.0832  0.0731  0.1894
    1DIPC   PO4 7982  27.959  15.080   5.403  0.0546  0.0325  0.1970
    1DIPC   GL1 7983  27.989  14.740   5.038  0.2282 -0.2381  0.2162
    1DIPC   GL2 7984  28.300  14.609   4.802 -0.1429  0.1010 -0.0030
    1DIPC   C1A 7985  27.933  14.875   4.656 -0.0642  0.1500  0.0580
    1DIPC   D2A 7986  27.904  15.128   4.499  0.3327  0.0184 -0.3159
    1DIPC   D3A 7987  27.634  15.357   4.299 -0.0260 -0.1947  0.1243
    1DIPC   C4A 7988  27.761  15.720   3.952 -0.3689  0.2404  0.0650
    1DIPC   C1B 7989  28.422  14.411   4.395 -0.2260 -0.1776  0.0373
    1DIPC   D2B 7990  28.421  14.477   4.011  0.1022  0.4412 -0.3704
    1DIPC   D3B 7991  28.571  14.233   3.788  0.0766 -0.0806  0.0568
    1DIPC   C4B 7992  29.040  14.286   3.754 -0.1857 -0.2104  0.2566
    1DIPC   NC3 7993  26.711  14.365   5.377  0.0878 -0.2028  0.3236
    1DIPC   PO4 7994  27.134  14.431   5.373 -0.1787 -0.2875 -0.1286
    1DIPC   GL1 7995  26.963  14.501   4.932  0.0940 -0.0401 -0.0097
    1DIPC   GL2 7996  26.645  14.282   4.890 -0.0829 -0.0675  0.0980
    1DIPC   C1A 7997  27.071  14.465   4.447 -0.1237  0.0123  0.2410
    1DIPC   D2A 7998  27.190  14.293   3.985  0.2665  0.0627 -0.1714
    1DIPC   D3A 7999  27.392  14.191   3.555  0.1354  0.3275  0.0412
    1DIPC   C4A 8000  27.450  14.408   3.253 -0.1313  0.0778  0.1220
    1DIPC   C1B 8001  26.692  14.175   4.410 -0.1584  0.1357 -0.3090
    1DIPC   D2B 8002  26.302  14.220   4.174  0.0470  0.2691 -0.0914
    1DIPC   D3B 8003  26.235  14.095   3.732 -0.1151  0.1436 -0.1714
    1DIPC   C4B 8004  26.084  14.268   3.371 -0.1628  0.4578 -0.2227
    1DIPC   NC3 8005   3.444  28.481   7.539  0.0421  0.1117 -0.0651
    1DIPC   PO4 8006   2.994  28.383   7.358  0.1332 -0.0980  0.1333
    1DIPC   GL1 8007   3.186  28.353   7.006 -0.1344 -0.4789  0.1097
    1DIPC   GL2 8008   3.114  28.210   6.790  0.0468 -0.1311  0.0476
    1DIPC   C1A 8009   3.560  28.622   6.706  0.0337  0.1323  0.0512
    1DIPC   D2A 8010   3.749  28.531   6.325 -0.0617  0.4201 -0.5113
    1DIPC   D3A 8011   3.885  28.324   5.937  0.5090  0.0428 -0.0969
    1DIPC   C4A 8012   3.969  28.493   5.498 -0.3085 -0.0539 -0.0124
    1DIPC   C1B 8013   2.904  28.530   6.595  0.1302  0.1331  0.1937
    1DIPC   D2B 8014   2.828  28.957   6.396 -0.1352 -0.2047 -0.0750
    1DIPC   D3B 8015   2.954  28.628   6.151  0.0873  0.1414  0.0792
    1DIPC   C4B 8016   3.281  28.324   6.214  0.1635  0.4554  0.0090
    1DIPC   NC3 8017   2.246  23.881   6.107  0.2861  0.0573 -0.0248
    1DIPC   PO4 8018   2.311  24.177   5.825  0.3152 -0.1261 -0.5255
    1DIPC   GL1 8019   2.022  23.999   5.488 -0.0298 -0.0386  0.2619
    1DIPC   GL2 8020   2.111  24.070   5.100  0.0658  0.0552  0.0056
    1DIPC   C1A 8021   1.960  23.618   5.178 -0.1824  0.0839  0.0467
    1DIPC   D2A 8022   1.976  23.221   5.033  0.0758  0.0961 -0.3192
    1DIPC   D3A 8023   1.943  23.364   4.689 -0.2614 -0.3116 -0.1639
    1DIPC   C4A 8024   1.927  23.719   4.385 -0.1599 -0.0246 -0.0693
    1DIPC   C1B 8025   1.905  24.464   5.144 -0.0378 -0.0510 -0.1139
    1DIPC   D2B 8026   1.713  24.653   4.781  0.0290 -0.2561 -0.2308
    1DIPC   D3B 8027   1.936  24.884   4.515 -0.0254 -0.0624 -0.3738
    1DIPC   C4B 8028   2.255  24.792   4.267  0.1034 -0.0544  0.2316
    1DIPC   NC3 8029  22.430  26.479   7.122  0.2101 -0.2782 -0.1269
    1DIPC   PO4 8030  22.285  26.798   6.748 -0.0594 -0.0984 -0.0718
    1DIPC   GL1 8031  22.420  26.673   6.400  0.1347 -0.0008  0.2813
    1DIPC   GL2 8032  22.111  26.512   6.031 -0.2802 -0.2825  0.0817
    1DIPC   C1A 8033  22.586  26.570   5.993 -0.2684 -0.0962  0.1704
    1DIPC   D2A 8034  22.840  26.270   5.844  0.0491 -0.0312 -0.0283
    1DIPC   D3A 8035  23.024  26.601   5.709 -0.0595  0.2671 -0.3278
    1DIPC   C4A 8036  23.125  26.861   5.976 -0.0787 -0.0052 -0.2189
    1DIPC   C1B 8037  22.262  26.969   5.888  0.2980  0.3128 -0.0097
    1DIPC   D2B 8038  22.052  27.327   5.687  0.1951 -0.4188 -0.0718
    1DIPC   D3B 8039  21.736  27.185   5.449  0.0560  0.1765  0.2442
    1DIPC   C4B 8040  21.185  27.199   5.505 -0.3352  0.0897 -0.2041
    1DIPC   NC3 8041  26.374  19.046   5.355  0.0081  0.2322  0.2185
    1DIPC   PO4 8042  26.035  18.735   5.439  0.2450 -0.0194 -0.1650
    1DIPC   GL1 8043  25.936  18.813   5.061  0.0866  0.0078  0.0416
    1DIPC   GL2 8044  26.035  19.144   4.988  0.3166 -0.0589 -0.0829
    1DIPC   C1A 8045  25.581  18.878   4.865  0.0042 -0.2855 -0.3491
    1DIPC   D2A 8046  25.420  19.095   4.520 -0.0332 -0.0614  0.3109
    1DIPC   D3A 8047  25.509  18.743   4.252  0.2871 -0.0750  0.0368
    1DIPC   C4A 8048  25.725  18.770   3.895  0.1585 -0.0622 -0.1109
    1DIPC   C1B 8049  26.010  18.884   4.476 -0.3183 -0.2405 -0.3580
    1DIPC   D2B 8050  26.278  18.624   4.291 -0.0292  0.0314  0.0007
    1DIPC   D3B 8051  25.896  18.423   4.175 -0.2238  0.0216  0.0528
    1DIPC   C4B 8052  25.944  18.115   3.720 -0.0127 -0.0507 -0.0640
    1DIPC   NC3 8053  10.907  28.090   6.572  0.1979 -0.1201  0.0672
    1DIPC   PO4 8054  11.260  27.862   6.429 -0.0961 -0.1815  0.0741
    1DIPC   GL1 8055  11.477  27.907   6.111 -0.0038  0.0404 -0.1701
    1DIPC   GL2 8056  11.477  27.749   5.899 -0.1194 -0.1442 -0.0299
    1DIPC   C1A 8057  11.807  28.056   5.715 -0.3806  0.0077 -0.2737
    1DIPC   D2A 8058  11.963  28.257   5.386 -0.0499 -0.2786  0.4391
    1DIPC   D3A 8059  12.157  27.950   5.374  0.1613  0.0738  0.0819
    1DIPC   C4A 8060  12.600  27.967   5.325  0.1802  0.1181 -0.2923
    1DIPC   C1B 8061  11.272  27.894   5.575 -0.3644  0.0715 -0.5092
    1DIPC   D2B 8062  10.996  27.794   5.228  0.1613  0.0207  0.2100
    1DIPC   D3B 8063  11.277  27.670   5.018 -0.1729  0.4792  0.0074
    1DIPC   C4B 8064  11.473  27.226   5.022  0.2143 -0.2840 -0.1756
    1DIPC   NC3 8065   0.833  14.373   5.365  0.2262 -0.0152  0.0289
    1DIPC   PO4 8066   1.299  14.216   5.397  0.1127 -0.0620  0.1212
    1DIPC   GL1 8067   1.331  14.218   5.080  0.0486  0.0811 -0.1229
    1DIPC   GL2 8068   1.103  14.030   4.861 -0.0696 -0.2866 -0.1091
    1DIPC   C1A 8069   1.576  14.124   4.720 -0.2299  0.1026  0.2783
    1DIPC   D2A 8070   1.674  13.990   4.308 -0.2745 -0.3686 -0.0253
    1DIPC   D3A 8071   1.982  13.736   4.265  0.0176  0.1089 -0.1049
    1DIPC   C4A 8072   2.111  13.606   3.880 -0.0715 -0.1233  0.0368
    1DIPC   C1B 8073   1.189  13.719   4.533 -0.1649  0.1842 -0.1018
    1DIPC   D2B 8074   1.292  13.489   4.152  0.0142  0.0778 -0.0634
    1DIPC   D3B 8075   1.697  13.387   4.034 -0.2271 -0.0420  0.4962
    1DIPC   C4B 8076   1.867  13.222   4.353 -0.2577 -0.2070 -0.2077
    1DIPC   NC3 8077   1.710  12.781   6.200 -0.2025  0.0693 -0.0663
    1DIPC   PO4 8078   2.013  12.834   5.874 -0.1951  0.1114  0.1703
    1DIPC   GL1 8079   2.170  12.741   5.509  0.0119  0.4106 -0.4968
    1DIPC   GL2 8080   2.338  12.407   5.643 -0.2252  0.1286 -0.0721
    1DIPC   C1A 8081   2.464  12.650   5.158 -0.0309  0.0978  0.0764
    1DIPC   D2A 8082   2.597  12.553   4.771 -0.0352 -0.1194 -0.0215
    1DIPC   D3A 8083   2.881  12.282   4.480 -0.1998 -0.1591 -0.0339
    1DIPC   C4A 8084   3.228  12.413   4.482 -0.1030 -0.4270 -0.0103
    1DIPC   C1B 8085   2.646  12.244   5.347  0.0541 -0.3890  0.0612
    1DIPC   D2B 8086   2.793  11.912   5.099 -0.0218 -0.0348  0.0768
    1DIPC   D3B 8087   2.410  12.051   4.908  0.2397 -0.3400  0.1291
    1DIPC   C4B 8088   2.460  12.114   4.442  0.3612 -0.2889 -0.2561
    1DIPC   NC3 8089  24.144   8.699   6.780  0.2560 -0.2712 -0.0586
    1DIPC   PO4 8090  24.407   8.487   6.516 -0.0563  0.1141  0.0800
    1DIPC   GL1 8091  24.598   8.440   6.074  0.2155  0.1104 -0.1696
    1DIPC   GL2 8092  24.823   8.612   6.051  0.0398 -0.1385 -0.1306
    1DIPC   C1A 8093  24.407   8.430   5.679 -0.1041  0.0990 -0.1122
    1DIPC   D2A 8094  24.445   8.258   5.272  0.4411 -0.5532  0.3303
    1DIPC   D3A 8095  24.304   8.774   5.224 -0.1494  0.1281 -0.0630
    1DIPC   C4A 8096  24.399   8.875   4.769 -0.1254  0.2609  0.0128
    1DIPC   C1B 8097  24.618   8.908   5.785  0.1016  0.0770 -0.1238
    1DIPC   D2B 8098  24.815   9.296   5.530 -0.1572  0.4823  0.0810
    1DIPC   D3B 8099  24.586   9.236   5.126  0.2401 -0.0345  0.1064
    1DIPC   C4B 8100  24.718   9.262   4.746 -0.1122 -0.0107  0.0008
    1DIPC   NC3 8101  27.445  29.362   6.535 -0.1258 -0.0043 -0.2094
    1DIPC   PO4 8102  27.691  29.597   6.350 -0.0705 -0.0112 -0.3155
    1DIPC   GL1 8103  27.601  29.657   5.934 -0.1199 -0.0649  0.1668
    1DIPC   GL2 8104  27.297  29.687   5.884  0.0200  0.1442  0.0297
    1DIPC   C1A 8105  27.902  29.850   5.617 -0.0040 -0.0229 -0.2059
    1DIPC   D2A 8106  28.159  30.075   5.560  0.0056  0.1844  0.2564
    1DIPC   D3A 8107  28.344  29.890   5.251 -0.1450 -0.1575 -0.1455
    1DIPC   C4A 8108  28.620  30.037   4.921  0.1984  0.0111 -0.0700
    1DIPC   C1B 8109  27.427  29.553   5.500  0.0441  0.0385  0.0947
    1DIPC   D2B 8110  27.561  29.646   5.053 -0.1346 -0.1116 -0.0090
    1DIPC   D3B 8111  27.809  29.313   4.834 -0.0659  0.0432  0.0308
    1DIPC   C4B 8112  27.584  29.056   4.488  0.1049  0.1509 -0.1813
    1DIPC   NC3 8113   7.527   6.845   7.129  0.2286 -0.1339 -0.0284
    1DIPC   PO4 8114   7.625   6.670   6.811  0.2354  0.0705  0.1696
    1DIPC   GL1 8115   7.329   6.437   6.584  0.1294 -0.0958 -0.1794
    1DIPC   GL2 8116   7.388   6.037   6.675  0.1224  0.1830  0.2018
    1DIPC   C1A 8117   7.155   6.414   6.135 -0.0735  0.1424  0.1210
    1DIPC   D2A 8118   7.302   6.548   5.625 -0.0128 -0.1274  0.1918
    1DIPC   D3A 8119   7.329   6.244   5.310  0.3438 -0.0357  0.0546
    1DIPC   C4A 8120   7.054   5.875   5.329 -0.1123 -0.2056  0.0293
    1DIPC   C1B 8121   7.676   6.171   6.329 -0.0833 -0.2005  0.2912
    1DIPC   D2B 8122   7.976   6.087   6.188  0.0226  0.1985  0.1288
    1DIPC   D3B 8123   7.911   5.928   5.871  0.1812 -0.2638  0.0241
    1DIPC   C4B 8124   8.009   6.152   5.513 -0.1144  0.2643  0.1702
    1DIPC   NC3 8125  16.872  26.170   7.216 -0.1231  0.2528  0.2651
    1DIPC   PO4 8126  17.232  26.427   7.073 -0.3697 -0.0167 -0.1676
    1DIPC   GL1 8127  17.115  26.605   6.640  0.0369 -0.0450  0.2986
    1DIPC   GL2 8128  16.835  26.513   6.439  0.0836 -0.1748  0.2082
    1DIPC   C1A 8129  17.273  26.718   6.216  0.0479 -0.2126  0.0188
    1DIPC   D2A 8130  17.401  26.860   5.800  0.1948 -0.0335 -0.0771
    1DIPC   D3A 8131  17.479  26.667   5.440 -0.1821 -0.1193  0.3123
    1DIPC   C4A 8132  17.213  26.701   5.047 -0.0452 -0.1264 -0.1001
    1DIPC   C1B 8133  17.081  26.280   6.242  0.1014 -0.0931  0.0265
    1DIPC   D2B 8134  17.365  26.229   5.781 -0.0143  0.1160  0.4602
    1DIPC   D3B 8135  16.942  26.146   5.745  0.0950  0.2045  0.1024
    1DIPC   C4B 8136  16.969  25.837   5.471 -0.0545  0.2126 -0.4183
    1DIPC   NC3 8137  25.794   0.480   6.263 -0.0088  0.0622 -0.1326
    1DIPC   PO4 8138  25.754   0.064   6.181 -0.2142 -0.1186  0.0053
    1DIPC   GL1 8139  25.827   0.227   5.790 -0.1837 -0.2645 -0.1627
    1DIPC   GL2 8140  25.653   0.455   5.683 -0.0582 -0.0078  0.0725
    1DIPC   C1A 8141  25.957   0.330   5.276  0.0539 -0.2493 -0.2284
    1DIPC   D2A 8142  25.945   0.262   4.831  0.0446  0.3003  0.1894
    1DIPC   D3A 8143  25.799   0.597   4.492 -0.2753 -0.0312 -0.1362
    1DIPC   C4A 8144  26.107   0.999   4.610 -0.0730 -0.1726  0.3700
    1DIPC   C1B 8145  25.512   0.745   5.370 -0.3445 -0.1831 -0.0083
    1DIPC   D2B 8146  25.588   0.820   4.956  0.0990  0.0275 -0.0834
    1DIPC   D3B 8147  25.651   1.235   4.998 -0.1334 -0.1349  0.2980
    1DIPC   C4B 8148  25.325   1.597   4.881  0.2177 -0.3857  0.2008
    1DIPC   NC3 8149   7.606  24.503   6.799 -0.2054  0.2044 -0.0117
    1DIPC   PO4 8150   7.647  24.706   6.373  0.1121 -0.0589  0.1292
    1DIPC   GL1 8151   7.916  24.782   5.977 -0.1666  0.0412  0.0456
    1DIPC   GL2 8152   7.826  25.044   5.888  0.0074  0.0528 -0.0342
    1DIPC   C1A 8153   8.350  24.907   5.822  0.1984  0.0833 -0.0346
    1DIPC   D2A 8154   8.623  24.903   5.682 -0.0807  0.1891  0.1012
    1DIPC   D3A 8155   8.393  25.011   5.301  0.3562  0.1596 -0.3868
    1DIPC   C4A 8156   8.065  24.758   4.976 -0.0487  0.0065 -0.1151
    1DIPC   C1B 8157   7.925  25.143   5.367 -0.0316 -0.1099  0.4829
    1DIPC   D2B 8158   8.128  25.388   5.020 -0.0548  0.1452 -0.1349
    1DIPC   D3B 8159   8.172  25.178   4.539  0.3085 -0.2597  0.1173
    1DIPC   C4B 8160   7.996  25.398   4.150 -0.3511 -0.1857 -0.0824
    1DIPC   NC3 8161  13.180   3.565   7.106 -0.0576  0.0207  0.1169
    1DIPC   PO4 8162  12.860   3.870   7.398 -0.0331  0.2011  0.0687
    1DIPC   GL1 8163  12.796   3.858   6.820 -0.1176 -0.2211 -0.3287
    1DIPC   GL2 8164  13.010   3.819   6.608  0.3138  0.0071 -0.3387
    1DIPC   C1A 8165  12.488   3.600   6.519 -0.0097 -0.1095 -0.1330
    1DIPC   D2A 8166  12.275   3.776   6.135 -0.1249 -0.1329  0.1768
    1DIPC   D3A 8167  12.549   3.979   6.053  0.0450  0.1572  0.1232
    1DIPC   C4A 8168  13.043   4.072   5.797 -0.1844 -0.0592  0.1599
    1DIPC   C1B 8169  12.987   3.717   6.157  0.3003  0.1632  0.0588
    1DIPC   D2B 8170  12.680   3.362   6.070  0.3490 -0.1013  0.0254
    1DIPC   D3B 8171  12.466   3.306   5.641 -0.0173  0.0233 -0.0472
    1DIPC   C4B 8172  12.027   3.295   5.653  0.0169  0.1855  0.0074
    1DIPC   NC3 8173   7.102   8.838   7.224 -0.1798 -0.1046  0.2454
    1DIPC   PO4 8174   7.517   8.699   7.125 -0.3071 -0.0867  0.2158
    1DIPC   GL1 8175   7.401   8.658   6.700  0.0500 -0.3107 -0.2437
    1DIPC   GL2 8176   7.235   8.925   6.672 -0.0865 -0.0508 -0.0780
    1DIPC   C1A 8177   7.605   8.482   6.386  0.0327 -0.0701 -0.0414
    1DIPC   D2A 8178   7.712   8.117   6.125  0.1221  0.0618  0.1127
    1DIPC   D3A 8179   7.756   8.369   5.824 -0.1963 -0.0931  0.1037
    1DIPC   C4A 8180   7.608   8.401   5.526  0.2691  0.1686 -0.0979
    1DIPC   C1B 8181   7.104   8.792   6.338 -0.1083 -0.2601  0.2307
    1DIPC   D2B 8182   7.131   9.029   5.967  0.2611 -0.1431  0.0120
    1DIPC   D3B 8183   6.973   8.739   5.652  0.0118 -0.1170  0.0353
    1DIPC   C4B 8184   7.213   8.726   5.305 -0.2776  0.1582  0.2328
    1DIPC   NC3 8185   4.857  21.446   5.629 -0.0151  0.1707  0.2723
    1DIPC   PO4 8186   5.026  21.598   5.233  0.1913 -0.3797  0.2874
    1DIPC   GL1 8187   4.772  21.965   4.911 -0.0323 -0.0174 -0.0807
    1DIPC   GL2 8188   4.872  21.815   4.613  0.0714 -0.2119 -0.1346
    1DIPC   C1A 8189   4.591  22.219   4.600  0.1096 -0.1321  0.0468
    1DIPC   D2A 8190   4.710  22.379   4.196  0.0954  0.0385 -0.1673
    1DIPC   D3A 8191   4.371  22.542   3.881 -0.0193  0.4294  0.1182
    1DIPC   C4A 8192   4.272  22.959   3.829 -0.0080  0.0466  0.0327
    1DIPC   C1B 8193   4.933  21.926   4.166 -0.0349  0.1234  0.0624
    1DIPC   D2B 8194   4.789  21.649   3.875 -0.0306 -0.3972 -0.0700
    1DIPC   D3B 8195   4.314  21.601   3.912 -0.1490 -0.0042 -0.2927
    1DIPC   C4B 8196   4.146  21.195   3.904 -0.3819  0.1392 -0.0981
    1DIPC   NC3 8197   4.976   5.999   7.396 -0.0425 -0.1994 -0.2833
    1DIPC   PO4 8198   4.879   5.684   7.005  0.0990 -0.0277  0.0651
    1DIPC   GL1 8199   4.906   5.741   6.560  0.3893  0.2449 -0.2021
    1DIPC   GL2 8200   5.122   6.050   6.574  0.0984 -0.3610 -0.1437
    1DIPC   C1A 8201   4.605   5.676   6.192  0.0589  0.0791  0.0574
    1DIPC   D2A 8202   4.656   5.531   5.691 -0.1074 -0.1684 -0.0113
    1DIPC   D3A 8203   4.843   5.154   5.609 -0.2559 -0.1322 -0.1045
    1DIPC   C4A 8204   4.684   4.866   5.284  0.0085  0.0096 -0.1095
    1DIPC   C1B 8205   5.029   6.044   6.170 -0.0323  0.1339  0.0708
    1DIPC   D2B 8206   4.995   6.187   5.678 -0.4019 -0.1496 -0.4760
    1DIPC   D3B 8207   5.143   6.606   5.455  0.0681 -0.0514  0.3809
    1DIPC   C4B 8208   5.033   6.627   5.029  0.3828 -0.0997  0.1294
    1DIPC   NC3 8209  17.424  19.006   6.661  0.0956  0.4023  0.0188
    1DIPC   PO4 8210  17.941  19.154   6.607  0.0066  0.1653 -0.1266
    1DIPC   GL1 8211  17.610  19.345   6.325 -0.4006  0.1374 -0.0060
    1DIPC   GL2 8212  17.765  19.631   6.097 -0.0910 -0.0409 -0.1393
    1DIPC   C1A 8213  17.550  19.132   5.976  0.0051 -0.2984 -0.2717
    1DIPC   D2A 8214  17.671  18.902   5.678 -0.2542  0.1907  0.0821
    1DIPC   D3A 8215  17.643  19.007   5.313  0.0165  0.2746  0.0882
    1DIPC   C4A 8216  17.437  19.339   5.244  0.1214  0.0280 -0.1546
    1DIPC   C1B 8217  17.730  19.491   5.651  0.2433  0.2562 -0.0095
    1DIPC   D2B 8218  17.925  19.707   5.326  0.2138 -0.2827  0.0851
    1DIPC   D3B 8219  18.271  19.595   5.153 -0.2287 -0.1579 -0.1842
    1DIPC   C4B 8220  18.292  19.410   4.780 -0.4160  0.0592  0.2883
    1DIPC   NC3 8221   0.895  17.882   6.169  0.0014  0.1670 -0.3817
    1DIPC   PO4 8222   0.948  17.540   5.828  0.0119 -0.0025  0.2251
    1DIPC   GL1 8223   0.934  17.527   5.314 -0.0944 -0.2278 -0.0280
    1DIPC   GL2 8224   1.227  17.735   5.131  0.0375  0.0537  0.0343
    1DIPC   C1A 8225   0.763  17.543   4.905  0.1001  0.0387 -0.1286
    1DIPC   D2A 8226   0.757  17.862   4.631 -0.0115  0.1179  0.1848
    1DIPC   D3A 8227   0.287  17.992   4.659 -0.0641 -0.0504 -0.2286
    1DIPC   C4A 8228   0.194  18.353   4.914  0.2285 -0.1622  0.1660
    1DIPC   C1B 8229   1.295  17.971   4.748  0.0558 -0.0282  0.1300
    1DIPC   D2B 8230   1.506  17.966   4.355  0.3248  0.1296  0.0202
    1DIPC   D3B 8231   1.553  17.859   3.934 -0.0818  0.1007  0.2608
    1DIPC   C4B 8232   1.408  18.045   3.563 -0.3331 -0.0379 -0.1133
    1DIPC   NC3 8233  20.792   3.536   6.501  0.0257  0.3361 -0.3847
    1DIPC   PO4 8234  21.003   3.259   6.442 -0.1887 -0.3122 -0.0998
    1DIPC   GL1 8235  20.747   3.044   6.147 -0.0501 -0.0941  0.1072
    1DIPC   GL2 8236  20.450   3.291   6.171  0.1210 -0.2188 -0.1257
    1DIPC   C1A 8237  20.463   3.025   5.745 -0.2306 -0.3018 -0.2284
    1DIPC   D2A 8238  20.397   3.335   5.328 -0.1537  0.0330 -0.0764
    1DIPC   D3A 8239  20.744   3.164   5.041  0.2185  0.1027  0.2752
    1DIPC   C4A 8240  20.890   2.734   4.853 -0.0398  0.0804 -0.2237
    1DIPC   C1B 8241  20.574   3.528   5.797 -0.1604  0.0053 -0.3949
    1DIPC   D2B 8242  20.638   3.878   5.372 -0.0133  0.5962  0.1587
    1DIPC   D3B 8243  20.876   4.369   5.365 -0.0647 -0.2531 -0.0356
    1DIPC   C4B 8244  20.664   4.771   5.162 -0.0586 -0.3581 -0.0913
    1DIPC   NC3 8245   5.824   4.935   7.495  0.1659  0.2189  0.2482
    1DIPC   PO4 8246   5.964   5.179   7.067  0.3638  0.1583  0.0743
    1DIPC   GL1 8247   5.800   5.374   6.686  0.0580 -0.2998 -0.1081
    1DIPC   GL2 8248   5.689   5.140   6.440 -0.3842  0.0124  0.0908
    1DIPC   C1A 8249   5.574   5.581   6.330 -0.0512  0.2903  0.0100
    1DIPC   D2A 8250   5.431   5.954   5.984  0.1024  0.0660 -0.3897
    1DIPC   D3A 8251   5.446   5.993   5.539  0.0125  0.0185  0.2857
    1DIPC   C4A 8252   5.160   6.104   5.189  0.1122 -0.1419 -0.0132
    1DIPC   C1B 8253   5.600   4.746   6.261  0.1488  0.0886 -0.1905
    1DIPC   D2B 8254   5.382   4.483   6.545 -0.2095 -0.1127 -0.0234
    1DIPC   D3B 8255   5.384   4.226   6.254  0.1521 -0.0107  0.0238
    1DIPC   C4B 8256   5.566   4.202   5.860  0.0984 -0.2281  0.0722
    1DIPC   NC3 8257  26.050  18.212   5.624 -0.0980  0.1163  0.2518
    1DIPC   PO4 8258  26.192  17.680   5.618  0.0545  0.1533  0.0903
    1DIPC   GL1 8259  26.139  17.880   5.179 -0.2911  0.0552  0.1019
    1DIPC   GL2 8260  25.849  17.999   5.073 -0.0446 -0.0677  0.0591
    1DIPC   C1A 8261  26.092  17.815   4.735 -0.0537 -0.2019 -0.1550
    1DIPC   D2A 8262  26.197  18.083   4.387 -0.0177  0.1389 -0.1241
    1DIPC   D3A 8263  25.947  17.830   4.158 -0.2015  0.1824  0.0670
    1DIPC   C4A 8264  25.591  17.856   4.002 -0.1172 -0.1093  0.1054
    1DIPC   C1B 8265  25.602  17.975   4.688 -0.0118  0.0642  0.3624
    1DIPC   D2B 8266  25.344  18.109   4.327 -0.0346  0.1615 -0.3221
    1DIPC   D3B 8267  25.082  18.354   4.103  0.1207 -0.0105 -0.0935
    1DIPC   C4B 8268  25.051  18.790   4.310 -0.2796 -0.2561 -0.1080
    1DIPC   NC3 8269   1.258   3.425   6.787 -0.1695  0.0237  0.0226
    1DIPC   PO4 8270   1.577   3.432   6.435 -0.0136  0.3488 -0.1344
    1DIPC   GL1 8271   1.291   3.000   6.398 -0.1947 -0.1990  0.0253
    1DIPC   GL2 8272   1.298   2.998   6.042 -0.0387  0.2594 -0.0409
    1DIPC   C1A 8273   0.818   3.038   6.218  0.2123  0.1878  0.2476
    1DIPC   D2A 8274   0.832   3.212   5.875  0.2438 -0.2539  0.3020
    1DIPC   D3A 8275   1.069   3.579   5.583  0.1264 -0.1297 -0.2026
    1DIPC   C4A 8276   1.059   3.834   5.159  0.0950  0.1252  0.0723
    1DIPC   C1B 8277   0.973   2.736   5.822 -0.1728  0.0987 -0.0172
    1DIPC   D2B 8278   0.702   2.433   5.500 -0.0125  0.1671 -0.0987
    1DIPC   D3B 8279   0.692   2.450   5.111 -0.1332  0.3575 -0.2406
    1DIPC   C4B 8280   1.078   2.267   4.878  0.0210 -0.1547 -0.0916
    1DIPC   NC3 8281   5.232  23.596   5.425  0.1984  0.2256  0.0292
    1DIPC   PO4 8282   5.573  23.289   5.584 -0.0952 -0.2842 -0.0729
    1DIPC   GL1 8283   5.769  23.195   5.182  0.0630 -0.0055  0.2413
    1DIPC   GL2 8284   5.995  22.977   5.097 -0.0462 -0.1500  0.1228
    1DIPC   C1A 8285   5.861  23.197   4.656 -0.1365  0.1950 -0.0643
    1DIPC   D2A 8286   5.657  23.314   4.247 -0.2162  0.0175  0.0064
    1DIPC   D3A 8287   5.750  22.816   4.079 -0.1021  0.2733  0.3393
    1DIPC   C4A 8288   5.821  22.737   3.592  0.0432  0.0805 -0.2410
    1DIPC   C1B 8289   6.116  23.497   5.020  0.2354 -0.2285  0.0084
    1DIPC   D2B 8290   6.360  23.821   5.157 -0.0854  0.1634  0.0025
    1DIPC   D3B 8291   6.571  23.537   4.832  0.1361 -0.3421  0.1828
    1DIPC   C4B 8292   6.360  23.563   4.475 -0.0298  0.2379 -0.2982
    1DIPC   NC3 8293  22.255   3.312   6.315 -0.1249 -0.4120 -0.2081
    1DIPC   PO4 8294  22.414   3.651   6.580 -0.0875  0.0100 -0.3526
    1DIPC   GL1 8295  22.287   3.829   6.216  0.2047  0.1304 -0.1051
    1DIPC   GL2 8296  22.434   4.026   6.203  0.2774  0.0651  0.3312
    1DIPC   C1A 8297  22.039   3.924   5.809 -0.3180 -0.2113 -0.0325
    1DIPC   D2A 8298  21.791   4.103   5.546 -0.2613  0.3270  0.3704
    1DIPC   D3A 8299  21.908   4.266   5.102  0.2469 -0.0048  0.1407
    1DIPC   C4A 8300  21.726   3.996   4.691  0.1476  0.1011 -0.1936
    1DIPC   C1B 8301  22.523   3.908   5.785  0.0234 -0.0156 -0.0330
    1DIPC   D2B 8302  22.344   4.054   5.431 -0.1049  0.0155 -0.0043
    1DIPC   D3B 8303  22.819   4.012   5.369  0.2481 -0.0840 -0.1741
    1DIPC   C4B 8304  23.032   4.151   5.085  0.0390 -0.1589 -0.2261
    1DIPC   NC3 8305  28.713   4.019   5.992  0.0504 -0.5693  0.1905
    1DIPC   PO4 8306  28.544   3.626   5.908 -0.2408  0.0047 -0.3000
    1DIPC   GL1 8307  28.619   3.556   5.521  0.1728 -0.0570 -0.2863
    1DIPC   GL2 8308  28.517   3.813   5.356  0.1543 -0.0945  0.0271
    1DIPC   C1A 8309  28.455   3.339   5.152  0.3438 -0.0176  0.0089
    1DIPC   D2A 8310  28.647   3.203   4.773 -0.0360 -0.1130 -0.2403
    1DIPC   D3A 8311  28.596   3.689   4.644  0.1444 -0.1248  0.0170
    1DIPC   C4A 8312  28.575   4.082   4.958  0.2592 -0.3586 -0.1479
    1DIPC   C1B 8313  28.891   3.590   5.054 -0.0612  0.5451 -0.2486
    1DIPC   D2B 8314  29.191   3.709   4.774 -0.1422  0.0346 -0.0589
    1DIPC   D3B 8315  28.985   3.605   4.389  0.2456  0.0535  0.0237
    1DIPC   C4B 8316  28.678   3.923   4.154 -0.3436 -0.2412 -0.0244
    1DIPC   NC3 8317  27.966  16.297   6.068  0.1789 -0.0300  0.1205
    1DIPC   PO4 8318  27.995  16.547   5.742  0.0163 -0.0536  0.0312
    1DIPC   GL1 8319  28.306  16.738   5.380  0.0375  0.1066 -0.0709
    1DIPC   GL2 8320  28.559  16.753   5.410 -0.1418 -0.1316  0.1540
    1DIPC   C1A 8321  28.257  17.120   5.021 -0.1869 -0.3334 -0.0493
    1DIPC   D2A 8322  28.495  17.388   4.908  0.1859 -0.0177  0.0600
    1DIPC   D3A 8323  28.468  17.158   4.577 -0.0276 -0.2340  0.0425
    1DIPC   C4A 8324  28.731  17.083   4.407 -0.0877  0.0859 -0.2218
    1DIPC   C1B 8325  28.652  16.771   5.015 -0.2424  0.1057  0.0918
    1DIPC   D2B 8326  28.931  17.062   4.906  0.0936  0.1638  0.1353
    1DIPC   D3B 8327  29.259  16.737   4.817 -0.0144 -0.0367 -0.0412
    1DIPC   C4B 8328  29.254  16.532   4.462  0.0413  0.1030 -0.1946
    1DIPC   NC3 8329  20.147  25.520   6.897 -0.0827  0.1863  0.2814
    1DIPC   PO4 8330  20.441  25.544   6.469 -0.2481  0.2086  0.1536
    1DIPC   GL1 8331  20.050  25.381   6.248  0.2289  0.0201 -0.1677
    1DIPC   GL2 8332  20.205  25.118   6.072 -0.2636 -0.1735  0.2244
    1DIPC   C1A 8333  19.751  25.127   5.893  0.0277 -0.2216 -0.0395
    1DIPC   D2A 8334  19.591  24.915   5.527 -0.0291 -0.2157 -0.1760
    1DIPC   D3A 8335  19.995  24.667   5.358  0.2502 -0.0501  0.0906
    1DIPC   C4A 8336  20.397  24.594   5.568 -0.0579 -0.1082 -0.2875
    1DIPC   C1B 8337  20.261  25.103   5.644 -0.1008  0.0910 -0.2694
    1DIPC   D2B 8338  20.390  25.112   5.212 -0.1737  0.0048  0.0542
    1DIPC   D3B 8339  20.230  25.288   4.938  0.0160  0.0029 -0.1243
    1DIPC   C4B 8340  20.500  25.356   4.638 -0.3137  0.1433 -0.1288
    1DIPC   NC3 8341  20.708  21.513   6.419 -0.0590  0.1285  0.1682
    1DIPC   PO4 8342  21.118  21.483   6.359 -0.0894  0.2640  0.0139
    1DIPC   GL1 8343  21.092  21.607   5.926 -0.1298  0.2355 -0.3228
    1DIPC   GL2 8344  20.781  21.629   5.928 -0.1003  0.1687 -0.1160
    1DIPC   C1A 8345  20.963  21.844   5.497  0.0598  0.0759 -0.0376
    1DIPC   D2A 8346  20.663  21.835   5.134 -0.0037 -0.0927  0.1438
    1DIPC   D3A 8347  20.978  21.836   4.853 -0.1312 -0.0839  0.2448
    1DIPC   C4A 8348  21.029  21.968   4.504  0.0762  0.2900  0.1534
    1DIPC   C1B 8349  20.543  21.484   5.505 -0.0588  0.1195 -0.0725
    1DIPC   D2B 8350  20.375  21.437   5.051 -0.1763 -0.1139  0.0258
    1DIPC   D3B 8351  20.060  21.658   4.896  0.2936 -0.0239 -0.1178
    1DIPC   C4B 8352  20.106  21.552   4.439  0.2441  0.0735  0.3321
    1DIPC   NC3 8353  28.655  10.677   5.942  0.5898 -0.1966 -0.0253
    1DIPC   PO4 8354  29.038  10.834   5.681  0.0739 -0.0708  0.0659
    1DIPC   GL1 8355  28.724  10.913   5.395  0.0201  0.1141 -0.0126
    1DIPC   GL2 8356  28.571  11.247   5.275  0.0383  0.2175 -0.1334
    1DIPC   C1A 8357  28.738  10.878   4.932  0.1689  0.2155  0.4607
    1DIPC   D2A 8358  28.643  10.878   4.508 -0.4323  0.2415  0.2850
    1DIPC   D3A 8359  28.413  10.491   4.337 -0.1439  0.0560  0.2253
    1DIPC   C4A 8360  28.354  10.083   4.200  0.0331  0.0463 -0.0452
    1DIPC   C1B 8361  28.353  11.340   4.879 -0.1856 -0.0100  0.0660
    1DIPC   D2B 8362  28.400  11.453   4.467 -0.2931  0.2171  0.0186
    1DIPC   D3B 8363  28.697  11.247   4.186  0.2141  0.2025  0.1937
    1DIPC   C4B 8364  28.890  11.469   3.865 -0.2172 -0.0277  0.0292
    1DIPC   NC3 8365   9.640   1.290   6.823 -0.3435 -0.1981  0.0738
    1DIPC   PO4 8366   9.174   1.283   6.972 -0.2002  0.0855  0.1353
    1DIPC   GL1 8367   9.284   1.010   6.617 -0.0857 -0.0373  0.0391
    1DIPC   GL2 8368   9.010   1.159   6.448 -0.0199  0.0153  0.2789
    1DIPC   C1A 8369   9.270   0.571   6.362 -0.3968  0.0821  0.2802
    1DIPC   D2A 8370   9.122   0.257   6.131  0.2714  0.2097  0.2536
    1DIPC   D3A 8371   9.351   0.129   5.837 -0.2193  0.1143  0.0341
    1DIPC   C4A 8372   9.115   0.163   5.415  0.1796  0.0883 -0.0111
    1DIPC   C1B 8373   8.905   0.907   6.097 -0.0682  0.1283 -0.0344
    1DIPC   D2B 8374   9.277   0.744   5.894 -0.2485 -0.1472  0.2297
    1DIPC   D3B 8375   9.060   0.709   5.652 -0.1032  0.1609  0.0556
    1DIPC   C4B 8376   9.416   0.680   5.321  0.1630  0.0189  0.2118
    1DIPC   NC3 8377  22.223  29.000   6.794 -0.0592 -0.0865  0.1399
    1DIPC   PO4 8378  22.060  28.528   6.511 -0.0964  0.0162 -0.1920
    1DIPC   GL1 8379  22.197  28.286   6.124  0.2109 -0.0019 -0.1630
    1DIPC   GL2 8380  21.928  28.227   5.918 -0.1855  0.1102 -0.1342
    1DIPC   C1A 8381  22.426  28.000   5.825 -0.1975  0.0320  0.0102
    1DIPC   D2A 8382  22.497  27.712   5.632  0.0627 -0.2248 -0.0208
    1DIPC   D3A 8383  22.349  27.590   5.136 -0.1780 -0.0150 -0.1526
    1DIPC   C4A 8384  22.686  27.537   4.856  0.0056  0.0044 -0.1173
    1DIPC   C1B 8385  22.183  28.505   5.696  0.0412 -0.0840 -0.3082
    1DIPC   D2B 8386  22.326  28.446   5.355 -0.2991 -0.1920  0.4056
    1DIPC   D3B 8387  22.454  28.804   5.314 -0.1105  0.1689 -0.1764
    1DIPC   C4B 8388  22.457  28.978   4.961 -0.0070 -0.1242  0.2050
    1DIPC   NC3 8389   6.313  15.383   7.186  0.0100  0.1037 -0.0755
    1DIPC   PO4 8390   6.661  15.163   7.055  0.1347  0.0829  0.1542
    1DIPC   GL1 8391   6.638  15.073   6.600  0.1065  0.3414 -0.1546
    1DIPC   GL2 8392   6.940  15.221   6.358  0.0278  0.0767 -0.2016
    1DIPC   C1A 8393   6.682  14.847   6.226  0.0723  0.1071  0.0256
    1DIPC   D2A 8394   6.762  14.690   5.836  0.0593  0.3546  0.1566
    1DIPC   D3A 8395   7.112  14.379   5.722  0.1458  0.0812  0.0753
    1DIPC   C4A 8396   7.421  14.402   5.877  0.0643  0.0489 -0.0880
    1DIPC   C1B 8397   6.829  15.323   5.888 -0.0955 -0.1626  0.0907
    1DIPC   D2B 8398   6.914  15.226   5.538  0.0832  0.0458  0.1964
    1DIPC   D3B 8399   7.156  15.490   5.396  0.0482 -0.2566  0.1668
    1DIPC   C4B 8400   7.202  15.484   4.997  0.0674 -0.0444 -0.2591
    1DIPC   NC3 8401   2.687   9.028   6.439  0.0754 -0.1641  0.0231
    1DIPC   PO4 8402   3.112   9.063   6.306 -0.0760  0.3298 -0.0756
    1DIPC   GL1 8403   2.866   8.940   5.980  0.1589 -0.0937  0.3246
    1DIPC   GL2 8404   2.626   9.169   5.807 -0.1975 -0.2536  0.1161
    1DIPC   C1A 8405   3.012   8.876   5.490 -0.3105  0.1007 -0.0595
    1DIPC   D2A 8406   3.266   8.741   5.231 -0.3067  0.0526  0.1798
    1DIPC   D3A 8407   2.942   8.701   4.995  0.2538 -0.0429 -0.1918
    1DIPC   C4A 8408   2.665   8.440   4.793 -0.3851 -0.1850 -0.0540
    1DIPC   C1B 8409   2.564   9.007   5.407  0.1999 -0.0583  0.5166
    1DIPC   D2B 8410   2.347   8.706   5.053  0.2426 -0.1278 -0.0543
    1DIPC   D3B 8411   1.895   8.978   5.100 -0.1057  0.1014  0.0236
    1DIPC   C4B 8412   1.677   8.872   4.783 -0.0775  0.1013 -0.0212
    1DIPC   NC3 8413  12.502  21.051   6.734  0.3463 -0.1957 -0.0658
    1DIPC   PO4 8414  12.068  20.810   6.703 -0.0600 -0.0118 -0.1168
    1DIPC   GL1 8415  11.893  20.859   6.300  0.0127  0.0730 -0.1496
    1DIPC   GL2 8416  11.700  20.568   6.237  0.1779 -0.1763 -0.0685
    1DIPC   C1A 8417  11.920  20.845   5.792 -0.3277 -0.0685  0.4758
    1DIPC   D2A 8418  11.882  20.969   5.302  0.0300 -0.2617  0.2831
    1DIPC   D3A 8419  12.229  21.113   5.303 -0.1992  0.1010  0.4211
    1DIPC   C4A 8420  12.286  20.639   5.175  0.0055  0.0421 -0.2631
    1DIPC   C1B 8421  11.957  20.353   5.973 -0.1120  0.0469 -0.0457
    1DIPC   D2B 8422  12.002  20.381   5.562 -0.0379 -0.1020  0.0270
    1DIPC   D3B 8423  12.360  20.658   5.662  0.0425 -0.0704 -0.1748
    1DIPC   C4B 8424  12.356  20.729   6.133  0.0438 -0.1137 -0.1476
    1DIPC   NC3 8425  12.600  23.692   6.393 -0.3169 -0.0679  0.0598
    1DIPC   PO4 8426  12.978  23.556   6.332  0.0033  0.1547  0.0913
    1DIPC   GL1 8427  13.166  23.494   5.925  0.0216  0.0228 -0.4882
    1DIPC   GL2 8428  13.508  23.620   5.839  0.2063  0.0145 -0.0327
    1DIPC   C1A 8429  13.222  23.603   5.403  0.1927 -0.0138  0.1029
    1DIPC   D2A 8430  13.053  23.705   5.011 -0.0698  0.1731  0.0144
    1DIPC   D3A 8431  13.118  23.355   4.795 -0.1909 -0.1831 -0.0799
    1DIPC   C4A 8432  13.472  23.142   4.727 -0.1607 -0.0045  0.0237
    1DIPC   C1B 8433  13.691  23.763   5.354 -0.0003  0.1781  0.2108
    1DIPC   D2B 8434  13.610  23.529   4.941 -0.0452 -0.1217 -0.1031
    1DIPC   D3B 8435  13.815  23.397   4.584 -0.0817 -0.3447 -0.0111
    1DIPC   C4B 8436  13.937  22.952   4.521 -0.0001  0.0490 -0.0593
    1DIPC   NC3 8437  25.576  28.761   6.762  0.1319 -0.0048  0.0009
    1DIPC   PO4 8438  25.909  28.753   6.986 -0.1910  0.2082  0.0276
    1DIPC   GL1 8439  26.161  28.488   6.590 -0.1857  0.1464  0.2701
    1DIPC   GL2 8440  26.130  28.672   6.356 -0.2199  0.0645  0.0425
    1DIPC   C1A 8441  26.396  28.276   6.235 -0.0104 -0.0450 -0.1035
    1DIPC   D2A 8442  26.609  28.254   5.796  0.3741  0.1354 -0.2878
    1DIPC   D3A 8443  26.964  27.951   5.794 -0.1668  0.1198 -0.0344
    1DIPC   C4A 8444  27.001  27.472   5.856 -0.1539  0.2083  0.2066
    1DIPC   C1B 8445  25.947  28.316   6.089 -0.0189 -0.2231  0.0565
    1DIPC   D2B 8446  25.753  28.060   5.787  0.2811 -0.1600 -0.3774
    1DIPC   D3B 8447  25.822  27.965   5.383  0.2264  0.0906 -0.3285
    1DIPC   C4B 8448  26.023  28.150   4.996 -0.3207  0.1732 -0.2450
    1DIPC   NC3 8449   6.553   8.514   7.567  0.0049 -0.0947  0.1274
    1DIPC   PO4 8450   6.610   8.781   7.154 -0.1301  0.1464 -0.0031
    1DIPC   GL1 8451   6.691   8.743   6.734  0.3517 -0.0332  0.3109
    1DIPC   GL2 8452   6.614   8.920   6.482 -0.0784  0.0464 -0.1933
    1DIPC   C1A 8453   6.687   8.400   6.463 -0.3868 -0.2885 -0.1693
    1DIPC   D2A 8454   6.882   8.332   6.074  0.1291 -0.0588 -0.0816
    1DIPC   D3A 8455   7.299   8.438   6.012 -0.0612  0.0677 -0.0644
    1DIPC   C4A 8456   7.521   8.811   5.780 -0.0337  0.0928  0.1119
    1DIPC   C1B 8457   6.644   9.081   6.091 -0.3794 -0.1246 -0.1445
    1DIPC   D2B 8458   6.758   9.281   5.765  0.1917  0.0701  0.2590
    1DIPC   D3B 8459   6.569   9.575   5.969 -0.3837 -0.2774  0.1538
    1DIPC   C4B 8460   6.431   9.508   6.382 -0.0264  0.2827  0.0168
    1DIPC   NC3 8461   7.789  13.222   6.841 -0.2030 -0.1954  0.3418
    1DIPC   PO4 8462   8.142  13.606   6.701  0.2115 -0.0140  0.0854
    1DIPC   GL1 8463   7.997  13.487   6.347 -0.1876 -0.2500  0.1364
    1DIPC   GL2 8464   7.739  13.737   6.158 -0.0064 -0.0735  0.0482
    1DIPC   C1A 8465   7.783  13.328   5.949  0.0686 -0.2192 -0.1958
    1DIPC   D2A 8466   7.570  13.325   5.630  0.1617 -0.0401 -0.0330
    1DIPC   D3A 8467   7.199  13.058   5.605 -0.1206 -0.1809 -0.2572
    1DIPC   C4A 8468   7.135  12.642   5.725  0.4306  0.1927 -0.0547
    1DIPC   C1B 8469   7.531  13.907   5.787 -0.1274 -0.1145  0.3920
    1DIPC   D2B 8470   7.538  14.113   5.407  0.1919 -0.2402 -0.3032
    1DIPC   D3B 8471   7.108  14.282   5.189 -0.0480 -0.2279  0.1713
    1DIPC   C4B 8472   6.876  13.893   5.162  0.1068  0.1721 -0.0210
    1DIPC   NC3 8473  27.318   1.386   6.406 -0.2784  0.0934 -0.1855
    1DIPC   PO4 8474  27.325   1.005   6.358 -0.2161  0.2239  0.1878
    1DIPC   GL1 8475  27.294   1.083   6.054 -0.0444 -0.0425 -0.0321
    1DIPC   GL2 8476  27.037   0.981   5.892 -0.1196  0.0854 -0.2645
    1DIPC   C1A 8477  27.698   1.069   5.762 -0.1503  0.0487  0.0335
    1DIPC   D2A 8478  27.877   0.917   5.377  0.0363  0.0420  0.0256
    1DIPC   D3A 8479  27.854   0.751   4.988  0.1520 -0.0004  0.1081
    1DIPC   C4A 8480  27.688   0.410   4.683  0.1421  0.1378 -0.3004
    1DIPC   C1B 8481  26.791   1.127   5.588  0.0198 -0.2402 -0.0549
    1DIPC   D2B 8482  26.608   1.392   5.350 -0.0616  0.0069  0.2131
    1DIPC   D3B 8483  26.269   1.303   5.007 -0.1869 -0.1014  0.3173
    1DIPC   C4B 8484  26.057   0.873   5.100 -0.2099  0.0532 -0.1880
    1DIPC   NC3 8485  20.331   1.254   7.093  0.1075 -0.3075  0.0612
    1DIPC   PO4 8486  20.083   1.530   6.742 -0.0468 -0.0397  0.4347
    1DIPC   GL1 8487  19.741   1.328   6.526 -0.1024  0.2275 -0.2552
    1DIPC   GL2 8488  19.418   1.539   6.619  0.1917  0.2264  0.0571
    1DIPC   C1A 8489  19.997   1.249   6.079  0.1286 -0.0615 -0.0593
    1DIPC   D2A 8490  20.286   1.204   5.727  0.1533  0.0919 -0.1653
    1DIPC   D3A 8491  19.974   0.920   5.642 -0.0168  0.0513  0.3041
    1DIPC   C4A 8492  19.762   1.122   5.286  0.0336 -0.2100 -0.1674
    1DIPC   C1B 8493  19.586   1.651   6.118 -0.0684  0.4612  0.1757
    1DIPC   D2B 8494  19.630   1.967   5.750  0.4953 -0.1241  0.1670
    1DIPC   D3B 8495  19.251   1.684   5.727 -0.1856 -0.1071 -0.2263
    1DIPC   C4B 8496  19.366   1.295   5.595  0.0630  0.0770 -0.0260
    1DIPC   NC3 8497   6.939  27.428   7.013  0.2190 -0.1062  0.0563
    1DIPC   PO4 8498   6.500  27.284   6.815 -0.1840  0.1023 -0.2477
    1DIPC   GL1 8499   6.545  27.406   6.399 -0.2080 -0.2538 -0.1424
    1DIPC   GL2 8500   6.718  27.595   6.203  0.1168  0.1419 -0.1979
    1DIPC   C1A 8501   6.265  27.388   5.962  0.1468 -0.4947 -0.0773
    1DIPC   D2A 8502   6.067  27.235   5.545 -0.0442  0.2061  0.0482
    1DIPC   D3A 8503   5.668  27.368   5.393 -0.0404 -0.0717  0.2427
    1DIPC   C4A 8504   5.359  27.657   5.402  0.0988  0.0246 -0.2638
    1DIPC   C1B 8505   6.936  27.797   5.729 -0.0592  0.2923  0.3488
    1DIPC   D2B 8506   7.161  27.994   5.347 -0.3286 -0.3356  0.3729
    1DIPC   D3B 8507   7.325  27.815   4.933 -0.0711 -0.1416  0.3488
    1DIPC   C4B 8508   6.978  27.654   4.659  0.1270  0.0418  0.0179
    1DIPC   NC3 8509   8.801   8.838   7.687  0.0036 -0.0712 -0.3290
    1DIPC   PO4 8510   8.315   8.896   7.634 -0.0288 -0.1307 -0.1239
    1DIPC   GL1 8511   8.207   9.142   7.279  0.2714 -0.1905 -0.1042
    1DIPC   GL2 8512   7.882   9.093   7.206 -0.0529 -0.1194 -0.0777
    1DIPC   C1A 8513   8.328   9.127   6.903  0.3061  0.1353  0.2633
    1DIPC   D2A 8514   8.460   9.209   6.474 -0.0405  0.1120 -0.0921
    1DIPC   D3A 8515   8.124   9.164   6.353 -0.1348  0.0609 -0.0827
    1DIPC   C4A 8516   7.827   8.889   6.158 -0.2114  0.2182  0.3842
    1DIPC   C1B 8517   7.809   9.205   6.752 -0.1497  0.1136  0.0721
    1DIPC   D2B 8518   7.570   9.287   6.408 -0.0415 -0.3905  0.2142
    1DIPC   D3B 8519   7.591   9.262   5.953  0.3825 -0.0882  0.2675
    1DIPC   C4B 8520   7.702   9.483   5.703  0.0072 -0.0880 -0.2022
    1DIPC   NC3 8521   4.905  16.948   6.222  0.4089 -0.0730 -0.0128
    1DIPC   PO4 8522   5.161  17.166   5.943 -0.0514  0.0037 -0.1689
    1DIPC   GL1 8523   5.320  17.176   5.596  0.2738  0.0297  0.1836
    1DIPC   GL2 8524   5.244  16.873   5.463 -0.1225  0.0364  0.0023
    1DIPC   C1A 8525   5.509  17.224   5.178 -0.0281  0.1430 -0.0368
    1DIPC   D2A 8526   5.579  17.138   4.792  0.0049  0.2474  0.0512
    1DIPC   D3A 8527   5.676  16.867   4.512 -0.0208 -0.2730  0.1848
    1DIPC   C4A 8528   5.797  17.094   4.052  0.2393  0.1992 -0.1033
    1DIPC   C1B 8529   5.244  16.513   5.220  0.1805  0.1585  0.0588
    1DIPC   D2B 8530   5.540  16.200   5.073 -0.0726 -0.1372  0.0745
    1DIPC   D3B 8531   5.379  15.870   4.760 -0.0470 -0.1650  0.0416
    1DIPC   C4B 8532   5.434  15.898   4.281 -0.1629  0.1170  0.0852
    1DIPC   NC3 8533  27.628   9.506   5.880  0.1475 -0.3776 -0.1486
    1DIPC   PO4 8534  27.886   9.873   5.783 -0.3537  0.1903  0.0082
    1DIPC   GL1 8535  27.837   9.808   5.417  0.0889 -0.3599  0.1625
    1DIPC   GL2 8536  27.581   9.669   5.346 -0.0296  0.1831  0.0194
    1DIPC   C1A 8537  28.082   9.694   5.017  0.2940  0.0474 -0.2508
    1DIPC   D2A 8538  28.265   9.334   4.787  0.0615 -0.1694 -0.0808
    1DIPC   D3A 8539  28.305   9.224   4.373  0.0918  0.1044  0.2583
    1DIPC   C4A 8540  28.204   9.608   4.125 -0.1542 -0.1343  0.3514
    1DIPC   C1B 8541  27.408   9.283   5.192  0.1688  0.1469 -0.1942
    1DIPC   D2B 8542  26.999   9.039   5.221 -0.0559 -0.1854 -0.1463
    1DIPC   D3B 8543  27.006   8.553   4.855  0.0111  0.1035  0.0624
    1DIPC   C4B 8544  27.160   8.572   4.500 -0.1760  0.1217 -0.0570
    1DIPC   NC3 8545  17.881  24.456   6.673  0.0576 -0.1753  0.0522
    1DIPC   PO4 8546  18.063  23.968   6.714 -0.0915  0.1493  0.0674
    1DIPC   GL1 8547  18.383  23.783   6.391 -0.0556 -0.0143 -0.1403
    1DIPC   GL2 8548  18.483  23.450   6.107  0.0120  0.0177  0.0329
    1DIPC   C1A 8549  18.559  23.948   6.124  0.1599  0.0623  0.2400
    1DIPC   D2A 8550  18.912  23.763   5.850 -0.2472  0.0895 -0.0873
    1DIPC   D3A 8551  18.720  23.750   5.426 -0.1861 -0.0960  0.0241
    1DIPC   C4A 8552  18.801  23.356   5.248  0.2997 -0.1021  0.0116
    1DIPC   C1B 8553  18.316  23.737   5.745  0.0295  0.3301  0.2909
    1DIPC   D2B 8554  18.068  24.110   5.839 -0.1415 -0.0208 -0.1701
    1DIPC   D3B 8555  17.938  23.948   6.206 -0.1903 -0.1232  0.0017
    1DIPC   C4B 8556  17.519  23.789   6.119  0.3331 -0.0514  0.2978
    1DIPC   NC3 8557  16.969   1.990   7.428 -0.2008 -0.1138 -0.0163
    1DIPC   PO4 8558  16.717   1.931   7.023 -0.1187  0.1786  0.2837
    1DIPC   GL1 8559  16.730   1.995   6.672 -0.0107 -0.0403  0.2582
    1DIPC   GL2 8560  16.768   1.710   6.458 -0.0551 -0.0871  0.3829
    1DIPC   C1A 8561  16.718   2.407   6.483  0.0918  0.0463  0.1100
    1DIPC   D2A 8562  16.459   2.729   6.630  0.5583  0.0996  0.6031
    1DIPC   D3A 8563  16.246   2.800   6.184  0.3357  0.1226 -0.0458
    1DIPC   C4A 8564  16.543   2.484   5.995 -0.0279 -0.1087 -0.2524
    1DIPC   C1B 8565  16.766   1.982   6.134 -0.0563  0.1183 -0.0766
    1DIPC   D2B 8566  16.777   2.107   5.685 -0.2757  0.2153  0.1691
    1DIPC   D3B 8567  17.154   2.401   5.773  0.0882  0.0001 -0.1068
    1DIPC   C4B 8568  17.061   2.706   5.914  0.1212  0.0465  0.3615
    1DIPC   NC3 8569  28.524  24.011   6.021  0.0235 -0.1314  0.0784
    1DIPC   PO4 8570  28.844  23.687   5.988  0.2961  0.0190  0.2224
    1DIPC   GL1 8571  28.689  23.782   5.618 -0.2022 -0.0788  0.0391
    1DIPC   GL2 8572  28.756  23.537   5.433 -0.0712 -0.0181  0.1906
    1DIPC   C1A 8573  28.586  24.058   5.300  0.0698  0.1806 -0.1829
    1DIPC   D2A 8574  28.385  24.016   4.899  0.0173  0.0406  0.0101
    1DIPC   D3A 8575  27.985  23.792   4.964  0.2630 -0.0939 -0.0299
    1DIPC   C4A 8576  27.814  23.583   4.642 -0.1213 -0.0035  0.1436
    1DIPC   C1B 8577  28.494  23.512   5.138  0.4249  0.1518  0.0418
    1DIPC   D2B 8578  28.545  23.552   4.739  0.1977  0.0570  0.0247
    1DIPC   D3B 8579  28.289  23.663   4.362  0.1713 -0.3472  0.0983
    1DIPC   C4B 8580  28.312  24.088   4.348  0.2047  0.5944 -0.2988
    1DIPC   NC3 8581  20.691   1.714   6.730 -0.0103  0.1258  0.0706
    1DIPC   PO4 8582  20.382   1.884   6.583  0.1820 -0.0489 -0.1017
    1DIPC   GL1 8583  20.267   1.666   6.226  0.2505 -0.0217  0.2105
    1DIPC   GL2 8584  20.601   1.447   6.077  0.2049  0.2822 -0.2150
    1DIPC   C1A 8585  20.088   1.661   5.883 -0.2621 -0.1015  0.1583
    1DIPC   D2A 8586  19.798   1.482   5.680  0.4736  0.1185  0.2511
    1DIPC   D3A 8587  19.735   1.727   5.335 -0.0254  0.1226  0.4201
    1DIPC   C4A 8588  19.950   1.530   4.961 -0.2053  0.1555 -0.2806
    1DIPC   C1B 8589  20.570   1.588   5.675 -0.3803 -0.0713 -0.0455
    1DIPC   D2B 8590  20.258   1.607   5.383  0.0814  0.1647  0.2391
    1DIPC   D3B 8591  20.382   1.822   5.012 -0.2188 -0.3423  0.0508
    1DIPC   C4B 8592  20.312   1.810   4.582  0.1897 -0.0758 -0.2056
    1DIPC   NC3 8593   2.037  16.510   5.767 -0.0530 -0.5533  0.0942
    1DIPC   PO4 8594   1.795  16.486   5.407 -0.2019 -0.0727  0.0968
    1DIPC   GL1 8595   1.955  16.621   5.012  0.3471 -0.1125  0.0999
    1DIPC   GL2 8596   2.206  16.644   5.022  0.0146  0.0369  0.2390
    1DIPC   C1A 8597   2.076  16.829   4.570  0.0883  0.0871 -0.0617
    1DIPC   D2A 8598   2.351  16.942   4.173 -0.1455 -0.0130  0.1985
    1DIPC   D3A 8599   2.583  17.206   4.578 -0.1312  0.1079 -0.1651
    1DIPC   C4A 8600   2.856  17.503   4.460  0.1018 -0.0776 -0.1740
    1DIPC   C1B 8601   2.550  16.679   4.709 -0.2247  0.0178  0.0497
    1DIPC   D2B 8602   2.826  16.590   4.344  0.0377  0.0448 -0.1300
    1DIPC   D3B 8603   3.069  16.366   4.061  0.2023 -0.3506  0.2607
    1DIPC   C4B 8604   3.480  16.162   4.035 -0.3175 -0.1236 -0.0454
    1DIPC   NC3 8605  28.276   6.772   6.378 -0.2454 -0.3253  0.0701
    1DIPC   PO4 8606  28.650   6.540   6.185 -0.0665 -0.0196  0.1886
    1DIPC   GL1 8607  28.354   6.530   5.895 -0.3573 -0.0630 -0.1635
    1DIPC   GL2 8608  28.418   6.186   5.765 -0.2084 -0.2189  0.1815
    1DIPC   C1A 8609  28.343   6.796   5.451  0.0609 -0.1232  0.1181
    1DIPC   D2A 8610  28.276   6.902   5.107  0.3061 -0.1026 -0.4761
    1DIPC   D3A 8611  27.803   6.918   4.988  0.1246  0.2859 -0.2746
    1DIPC   C4A 8612  27.815   7.044   4.483 -0.0159  0.0313  0.1495
    1DIPC   C1B 8613  28.111   5.998   5.389  0.0407 -0.0280  0.1732
    1DIPC   D2B 8614  27.727   6.123   5.316  0.0893 -0.0313 -0.0660
    1DIPC   D3B 8615  27.974   5.958   4.876 -0.0345 -0.1808  0.0667
    1DIPC   C4B 8616  28.395   6.036   4.912  0.0037 -0.3334 -0.2255
    1DIPC   NC3 8617  20.238  23.661   7.190 -0.2188 -0.1948  0.2342
    1DIPC   PO4 8618  20.009  23.485   6.823 -0.1984  0.1537  0.0743
    1DIPC   GL1 8619  20.030  23.382   6.397 -0.1583 -0.1000  0.0686
    1DIPC   GL2 8620  19.786  23.633   6.301  0.0168  0.0538 -0.2565
    1DIPC   C1A 8621  20.057  23.246   5.908  0.0579  0.1126  0.0182
    1DIPC   D2A 8622  20.307  23.241   5.491  0.2356 -0.1344 -0.1862
    1DIPC   D3A 8623  20.125  23.510   5.136 -0.0187 -0.1724 -0.1016
    1DIPC   C4A 8624  20.146  23.288   4.732 -0.1292  0.1751 -0.0956
    1DIPC   C1B 8625  19.863  23.680   5.895 -0.1882  0.1504  0.2035
    1DIPC   D2B 8626  19.794  23.773   5.418 -0.0173  0.2187 -0.2335
    1DIPC   D3B 8627  19.429  23.843   5.560 -0.1063  0.0183  0.1585
    1DIPC   C4B 8628  19.080  24.133   5.383  0.3342  0.1929 -0.1284
    1DIPC   NC3 8629  27.844  10.440   5.971 -0.2079 -0.3266  0.2441
    1DIPC   PO4 8630  28.142  10.790   5.980 -0.0898 -0.3520 -0.0762
    1DIPC   GL1 8631  28.067  10.972   5.579  0.1635  0.1361  0.0636
    1DIPC   GL2 8632  28.087  11.302   5.467 -0.0074  0.3208 -0.4161
    1DIPC   C1A 8633  27.541  11.119   5.426 -0.0482  0.0870 -0.0264
    1DIPC   D2A 8634  27.255  11.365   5.459 -0.0351  0.2923 -0.1684
    1DIPC   D3A 8635  27.493  11.646   5.188  0.2541  0.0522 -0.1094
    1DIPC   C4A 8636  27.482  11.711   4.826 -0.2671  0.1780  0.1116
    1DIPC   C1B 8637  27.864  11.175   5.064  0.1074  0.0095  0.0117
    1DIPC   D2B 8638  27.590  11.091   4.758  0.3175 -0.1928 -0.0994
    1DIPC   D3B 8639  27.229  11.216   4.983 -0.1143 -0.0833 -0.1669
    1DIPC   C4B 8640  26.999  10.957   5.348 -0.0244 -0.1381  0.1111
    1DIPC   NC3 8641  24.615  23.417   6.123 -0.0740  0.2311  0.0579
    1DIPC   PO4 8642  24.568  23.929   6.062 -0.2278  0.2070  0.0362
    1DIPC   GL1 8643  24.374  23.785   5.611 -0.1590 -0.2807 -0.0930
    1DIPC   GL2 8644  24.363  23.418   5.547 -0.5041  0.1260 -0.1042
    1DIPC   C1A 8645  23.942  23.861   5.418 -0.2089  0.3184  0.0750
    1DIPC   D2A 8646  23.531  24.073   5.241 -0.1159  0.3524 -0.1877
    1DIPC   D3A 8647  23.932  24.194   4.981 -0.1718 -0.1343  0.2452
    1DIPC   C4A 8648  24.022  24.214   4.496  0.1271  0.1653 -0.3133
    1DIPC   C1B 8649  24.337  23.549   5.139 -0.4973 -0.0033  0.2357
    1DIPC   D2B 8650  24.136  23.706   4.795  0.1153 -0.0637 -0.4011
    1DIPC   D3B 8651  23.788  23.497   5.139 -0.1800  0.2020  0.1720
    1DIPC   C4B 8652  23.385  23.422   5.010  0.1451 -0.3015 -0.0448
    1DIPC   NC3 8653   2.090  28.582   6.898 -0.1582 -0.0838  0.0748
    1DIPC   PO4 8654   2.194  28.244   7.123 -0.2504  0.2171 -0.1414
    1DIPC   GL1 8655   2.233  27.921   6.866 -0.0256 -0.1955  0.1356
    1DIPC   GL2 8656   2.057  28.094   6.656  0.0156  0.3548  0.2672
    1DIPC   C1A 8657   2.534  27.799   6.532  0.5456  0.0780 -0.0114
    1DIPC   D2A 8658   2.588  27.526   6.167 -0.2356  0.0700  0.1272
    1DIPC   D3A 8659   2.148  27.487   6.238  0.0467  0.4573  0.1839
    1DIPC   C4A 8660   2.021  27.511   5.868  0.4083 -0.0448 -0.0024
    1DIPC   C1B 8661   2.130  27.990   6.232  0.1970  0.4124  0.0929
    1DIPC   D2B 8662   2.365  27.844   5.824 -0.1820  0.1503  0.1609
    1DIPC   D3B 8663   2.486  28.249   5.542 -0.1279  0.1599 -0.0614
    1DIPC   C4B 8664   2.476  28.624   5.614  0.1347  0.1505 -0.1392
    1DIPC   NC3 8665  25.498   7.943   6.455 -0.0808  0.1494 -0.4008
    1DIPC   PO4 8666  25.128   7.827   6.633 -0.0887  0.1022 -0.2377
    1DIPC   GL1 8667  25.113   7.738   6.136  0.1205 -0.1030  0.1688
    1DIPC   GL2 8668  25.185   8.097   6.021  0.1667 -0.0119 -0.0647
    1DIPC   C1A 8669  25.172   7.672   5.712  0.1635  0.1450  0.0537
    1DIPC   D2A 8670  25.018   7.502   5.309  0.2045  0.1807 -0.4210
    1DIPC   D3A 8671  25.271   7.907   5.240  0.3191  0.1603 -0.0651
    1DIPC   C4A 8672  25.425   8.137   5.479 -0.2940  0.3352  0.0123
    1DIPC   C1B 8673  24.865   8.133   5.573  0.0358 -0.1054  0.0771
    1DIPC   D2B 8674  24.662   7.856   5.202  0.3257 -0.1330  0.0303
    1DIPC   D3B 8675  24.955   7.718   4.821 -0.1926 -0.2122 -0.0576
    1DIPC   C4B 8676  24.906   8.054   4.485  0.0996  0.0401 -0.1211
    1DIPC   NC3 8677  28.429  17.751   5.254  0.0486 -0.1530  0.2950
    1DIPC   PO4 8678  28.040  18.009   5.244  0.0020 -0.2693  0.2979
    1DIPC   GL1 8679  28.108  17.767   4.923 -0.1369  0.4088  0.2375
    1DIPC   GL2 8680  28.323  17.939   4.777 -0.0138  0.0989  0.1063
    1DIPC   C1A 8681  28.126  17.541   4.554  0.2947  0.1425  0.0816
    1DIPC   D2A 8682  28.237  17.232   4.160 -0.4972  0.0259 -0.1653
    1DIPC   D3A 8683  28.623  17.174   3.855  0.0755 -0.3336 -0.1921
    1DIPC   C4A 8684  28.973  17.473   3.747  0.0189 -0.1183 -0.0572
    1DIPC   C1B 8685  28.187  18.241   4.472  0.1901 -0.1592 -0.3796
    1DIPC   D2B 8686  28.093  18.630   4.093 -0.1359 -0.1128  0.0242
    1DIPC   D3B 8687  27.780  18.620   4.306 -0.1800  0.3870 -0.2687
    1DIPC   C4B 8688  27.635  18.867   4.680 -0.0526 -0.1157  0.1998
    1DIPC   NC3 8689   1.750  10.864   5.883  0.0326  0.1594  0.2197
    1DIPC   PO4 8690   1.765  10.448   6.078 -0.1412 -0.2786 -0.0526
    1DIPC   GL1 8691   1.831  10.310   5.751 -0.2082 -0.0519 -0.0600
    1DIPC   GL2 8692   2.173  10.148   5.738  0.1947 -0.0191  0.0290
    1DIPC   C1A 8693   1.700  10.270   5.275 -0.0883 -0.0743  0.0493
    1DIPC   D2A 8694   1.537  10.535   5.123 -0.0131  0.1964 -0.0393
    1DIPC   D3A 8695   1.838  10.831   5.325  0.1083  0.1316  0.1380
    1DIPC   C4A 8696   1.749  11.358   5.491 -0.1915  0.0912  0.1240
    1DIPC   C1B 8697   2.171  10.414   5.438 -0.1244 -0.0909  0.2284
    1DIPC   D2B 8698   2.121  10.462   5.016 -0.2728 -0.0557 -0.0068
    1DIPC   D3B 8699   1.895  10.803   4.838 -0.2389 -0.3445 -0.0466
    1DIPC   C4B 8700   1.780  10.829   4.404  0.1036  0.0527 -0.1165
    1DIPC   NC3 8701   5.218  16.080   6.673  0.1474 -0.0919  0.0295
    1DIPC   PO4 8702   5.493  16.311   6.419 -0.2009  0.1410  0.0447
    1DIPC   GL1 8703   5.419  16.078   6.103  0.0915  0.1251  0.0250
    1DIPC   GL2 8704   5.686  16.023   5.773 -0.1037  0.0438 -0.0023
    1DIPC   C1A 8705   5.236  15.705   5.815  0.0087  0.0823  0.1771
    1DIPC   D2A 8706   5.121  15.528   5.456 -0.0016 -0.2511 -0.1238
    1DIPC   D3A 8707   4.714  15.343   5.763  0.0832 -0.1433  0.2169
    1DIPC   C4A 8708   4.970  15.050   6.064  0.1050 -0.2958 -0.2451
    1DIPC   C1B 8709   5.613  15.752   5.417 -0.1150 -0.2344  0.3084
    1DIPC   D2B 8710   5.450  15.488   5.083  0.0447 -0.1739 -0.0129
    1DIPC   D3B 8711   5.857  15.751   4.955 -0.0241  0.4639 -0.0881
    1DIPC   C4B 8712   5.931  15.685   4.537 -0.2665 -0.1177 -0.4405
    1DIPC   NC3 8713   9.633   7.421   7.309 -0.1553 -0.0062  0.0635
    1DIPC   PO4 8714   9.410   7.427   6.913 -0.1295  0.3188  0.1099
    1DIPC   GL1 8715   9.256   7.212   6.630 -0.2290 -0.0631 -0.1504
    1DIPC   GL2 8716   8.943   7.264   6.629  0.0546  0.0704  0.0518
    1DIPC   C1A 8717   9.371   7.446   6.202 -0.1711  0.0196  0.0121
    1DIPC   D2A 8718   9.387   7.199   5.893 -0.1148 -0.0369 -0.2346
    1DIPC   D3A 8719   9.447   7.524   5.551 -0.1845 -0.2426  0.2070
    1DIPC   C4A 8720   9.465   7.365   5.147  0.1591  0.0553  0.0871
    1DIPC   C1B 8721   8.986   7.090   6.151  0.0781 -0.0138  0.0208
    1DIPC   D2B 8722   8.993   6.767   5.850 -0.0623 -0.0978  0.0708
    1DIPC   D3B 8723   8.659   6.485   5.588  0.1088  0.1361 -0.1063
    1DIPC   C4B 8724   8.524   6.083   5.252 -0.1259  0.3546 -0.1313
    1DIPC   NC3 8725  28.734  26.884   7.189 -0.3308  0.3192 -0.1698
    1DIPC   PO4 8726  28.925  27.231   6.874 -0.0722  0.0809 -0.0309
    1DIPC   GL1 8727  29.171  27.090   6.543 -0.0834  0.1586  0.2314
    1DIPC   GL2 8728  28.899  27.174   6.326 -0.0604  0.1781  0.1473
    1DIPC   C1A 8729  29.369  26.965   6.167 -0.2944 -0.0294  0.0334
    1DIPC   D2A 8730  28.982  26.903   5.906 -0.0525  0.0927 -0.1569
    1DIPC   D3A 8731  29.018  27.270   5.841  0.1412  0.0232  0.4154
    1DIPC   C4A 8732  29.325  27.455   5.498  0.0740  0.0812  0.2139
    1DIPC   C1B 8733  29.335  27.440   6.249  0.2602 -0.1719 -0.1126
    1DIPC   D2B 8734  29.567  27.912   6.399  0.1515  0.0059  0.0421
    1DIPC   D3B 8735  29.203  28.080   6.264  0.2121  0.2365  0.0972
    1DIPC   C4B 8736  29.213  28.559   6.263  0.1048 -0.0734  0.0214
    1DIPC   NC3 8737  17.758  27.935   6.720 -0.1284 -0.1957  0.1757
    1DIPC   PO4 8738  17.808  27.554   6.444 -0.0525  0.2263 -0.0454
    1DIPC   GL1 8739  17.787  27.479   5.993 -0.0041 -0.2492 -0.2589
    1DIPC   GL2 8740  17.515  27.331   6.129  0.0591 -0.0412 -0.0586
    1DIPC   C1A 8741  17.831  27.071   5.774 -0.0217  0.2307  0.0990
    1DIPC   D2A 8742  18.023  27.009   5.332 -0.1624  0.3178  0.0534
    1DIPC   D3A 8743  18.132  27.162   4.931 -0.0762 -0.0052 -0.2861
    1DIPC   C4A 8744  18.509  27.150   4.767  0.0358  0.1955 -0.1502
    1DIPC   C1B 8745  17.470  27.367   5.633  0.0967  0.2287 -0.2063
    1DIPC   D2B 8746  17.523  27.187   5.265 -0.0287 -0.0682  0.3127
    1DIPC   D3B 8747  17.176  27.164   4.864 -0.0866 -0.0447  0.0761
    1DIPC   C4B 8748  16.810  27.372   4.591  0.0951 -0.1155 -0.0809
    1DIPC   NC3 8749  22.406   7.711   6.705 -0.0204 -0.2006 -0.0274
    1DIPC   PO4 8750  22.441   8.087   6.521  0.1064  0.1554  0.0809
    1DIPC   GL1 8751  22.323   8.110   6.101  0.3660  0.0921 -0.0839
    1DIPC   GL2 8752  22.624   8.159   6.046 -0.1058  0.0297 -0.3109
    1DIPC   C1A 8753  22.314   8.241   5.686  0.1836 -0.2128  0.0088
    1DIPC   D2A 8754  22.431   8.425   5.260  0.2672  0.1981  0.1210
    1DIPC   D3A 8755  22.529   8.760   5.162  0.1696  0.0414  0.0820
    1DIPC   C4A 8756  22.654   8.963   4.836  0.1393 -0.0189  0.1286
    1DIPC   C1B 8757  22.769   8.348   5.619 -0.1478  0.0635  0.3314
    1DIPC   D2B 8758  23.005   8.166   5.318 -0.0743  0.1108  0.0619
    1DIPC   D3B 8759  23.312   7.925   5.438  0.3721  0.0147 -0.0274
    1DIPC   C4B 8760  23.729   8.054   5.551  0.1228  0.1635 -0.0201
    1DIPC   NC3 8761  27.567  27.000   6.299  0.0886  0.0741 -0.2360
    1DIPC   PO4 8762  27.290  27.356   6.395 -0.2040  0.1402 -0.1647
    1DIPC   GL1 8763  27.483  27.429   6.010 -0.0863 -0.3302  0.3957
    1DIPC   GL2 8764  27.529  27.235   5.710  0.1411 -0.2136  0.3008
    1DIPC   C1A 8765  27.815  27.604   5.682 -0.0165 -0.1449  0.0953
    1DIPC   D2A 8766  27.763  27.659   5.176 -0.0516  0.0777  0.2368
    1DIPC   D3A 8767  28.171  27.811   4.900  0.4431  0.2578  0.0352
    1DIPC   C4A 8768  28.064  27.999   4.543  0.3102 -0.1145 -0.0894
    1DIPC   C1B 8769  27.121  27.096   5.569 -0.0444  0.2161 -0.2200
    1DIPC   D2B 8770  26.923  26.995   5.168  0.0036 -0.1476  0.1296
    1DIPC   D3B 8771  27.130  26.849   4.733  0.0078 -0.1419  0.3626
    1DIPC   C4B 8772  27.270  26.515   4.453 -0.2391  0.1300 -0.1822
    1DIPC   NC3 8773  21.207  25.769   5.940  0.2788  0.3935 -0.0090
    1DIPC   PO4 8774  21.128  26.071   6.130  0.0316  0.1260 -0.0579
    1DIPC   GL1 8775  21.374  26.266   5.837 -0.0990 -0.0122  0.0879
    1DIPC   GL2 8776  21.275  26.542   5.731  0.0051 -0.0343 -0.0098
    1DIPC   C1A 8777  21.814  26.238   5.713  0.1516 -0.1817  0.0517
    1DIPC   D2A 8778  21.998  25.849   5.512 -0.2557  0.0934 -0.0024
    1DIPC   D3A 8779  21.725  26.062   5.158  0.0663 -0.1385  0.1611
    1DIPC   C4A 8780  21.546  25.938   4.844  0.0809 -0.2472  0.0075
    1DIPC   C1B 8781  21.303  26.410   5.358 -0.0512  0.2064  0.3108
    1DIPC   D2B 8782  21.381  26.410   4.938  0.1522  0.0462 -0.0936
    1DIPC   D3B 8783  20.944  26.443   4.795  0.1055 -0.3244 -0.0318
    1DIPC   C4B 8784  20.878  26.148   5.088 -0.0616  0.0233  0.0452
    1DIPC   NC3 8785   5.939   2.992   7.495  0.1283 -0.0485 -0.0400
    1DIPC   PO4 8786   6.199   2.566   7.258  0.0162  0.1869  0.3621
    1DIPC   GL1 8787   6.333   2.821   6.961 -0.3369  0.0349  0.0372
    1DIPC   GL2 8788   6.658   2.791   6.951 -0.2734 -0.0525  0.0192
    1DIPC   C1A 8789   6.323   2.955   6.558 -0.0540  0.0372 -0.0316
    1DIPC   D2A 8790   6.573   3.207   6.333  0.2099 -0.1687  0.0692
    1DIPC   D3A 8791   6.237   2.996   6.035 -0.0355 -0.2989  0.1344
    1DIPC   C4A 8792   6.250   3.128   5.607 -0.3062  0.2201  0.1053
    1DIPC   C1B 8793   6.571   2.530   6.648 -0.0366 -0.0315  0.0290
    1DIPC   D2B 8794   6.280   2.194   6.480  0.1346 -0.0644  0.1387
    1DIPC   D3B 8795   6.238   2.548   6.144 -0.2007 -0.1127  0.1055
    1DIPC   C4B 8796   5.778   2.526   6.060 -0.4755 -0.0791  0.0898
    1DIPC   NC3 8797  29.788  19.965   5.767 -0.1559  0.1076  0.0891
    1DIPC   PO4 8798  29.361  20.151   5.744 -0.3530  0.1427  0.0583
    1DIPC   GL1 8799  29.322  20.222   5.248 -0.0107 -0.2193  0.0269
    1DIPC   GL2 8800  29.129  20.629   5.202  0.0648  0.1024  0.0595
    1DIPC   C1A 8801  29.439  20.222   4.913  0.2024  0.1369 -0.0687
    1DIPC   D2A 8802  29.489  20.132   4.541 -0.0610 -0.0302  0.1836
    1DIPC   D3A 8803  29.071  20.102   4.312  0.2630  0.0305  0.0598
    1DIPC   C4A 8804  28.968  19.729   4.009  0.0384 -0.1025  0.2873
    1DIPC   C1B 8805  29.095  20.818   4.854  0.4482  0.0452 -0.3188
    1DIPC   D2B 8806  29.008  21.053   4.561  0.1548  0.1756 -0.1060
    1DIPC   D3B 8807  28.961  21.254   4.171  0.1696 -0.2643 -0.0496
    1DIPC   C4B 8808  28.531  21.216   3.976 -0.1102  0.1736  0.1376
    1DIPC   NC3 8809  27.060   0.800   6.726 -0.2681  0.0466 -0.2584
    1DIPC   PO4 8810  26.864   1.280   6.509  0.1629  0.1105 -0.4292
    1DIPC   GL1 8811  26.988   1.442   6.089 -0.0798  0.0399 -0.1861
    1DIPC   GL2 8812  27.118   1.831   5.985  0.1045  0.3148 -0.0931
    1DIPC   C1A 8813  26.922   1.602   5.647 -0.1069  0.0082  0.3435
    1DIPC   D2A 8814  26.923   1.728   5.196  0.0082 -0.1020 -0.1542
    1DIPC   D3A 8815  27.307   1.806   4.864  0.3733 -0.1777  0.0093
    1DIPC   C4A 8816  27.446   2.079   4.618 -0.2606  0.2071 -0.1099
    1DIPC   C1B 8817  27.377   1.447   5.683 -0.2104  0.0645 -0.1207
    1DIPC   D2B 8818  27.365   1.015   5.411 -0.1389  0.2807 -0.0205
    1DIPC   D3B 8819  27.098   1.206   5.208  0.0980 -0.0355 -0.0147
    1DIPC   C4B 8820  27.056   1.282   4.821 -0.1119  0.2967 -0.2935
    1DIPC   NC3 8821   6.548  14.713   6.918  0.0281 -0.1231  0.4174
    1DIPC   PO4 8822   6.193  14.638   6.737  0.0335 -0.0680  0.3148
    1DIPC   GL1 8823   6.159  14.807   6.324 -0.0544 -0.2352 -0.0231
    1DIPC   GL2 8824   5.811  14.969   6.364 -0.3699 -0.1730  0.2732
    1DIPC   C1A 8825   6.266  14.539   5.847 -0.1766 -0.2073 -0.1164
    1DIPC   D2A 8826   6.113  14.181   5.542  0.1072  0.0077  0.0160
    1DIPC   D3A 8827   6.049  14.536   5.152  0.0995 -0.2739 -0.4023
    1DIPC   C4A 8828   6.184  14.471   4.708 -0.0664 -0.3585  0.3635
    1DIPC   C1B 8829   5.905  14.932   5.926 -0.2802 -0.3058  0.1203
    1DIPC   D2B 8830   6.079  14.860   5.519 -0.1146  0.2803  0.1861
    1DIPC   D3B 8831   5.708  15.043   5.305 -0.1560  0.1121  0.1890
    1DIPC   C4B 8832   5.447  14.789   5.116  0.1127  0.1247 -0.0292
    1DIPC   NC3 8833  17.026   0.924   7.619  0.1743  0.1042 -0.0151
    1DIPC   PO4 8834  16.903   1.021   7.180 -0.1477  0.1121  0.1187
    1DIPC   GL1 8835  16.915   0.889   6.763  0.2574  0.0598  0.0742
    1DIPC   GL2 8836  16.586   0.871   6.699 -0.0075  0.0460  0.0847
    1DIPC   C1A 8837  17.145   0.978   6.353 -0.2898  0.0785  0.1915
    1DIPC   D2A 8838  17.438   1.130   5.972  0.1013 -0.1129  0.0510
    1DIPC   D3A 8839  17.592   0.877   5.851 -0.1890 -0.2528 -0.0990
    1DIPC   C4A 8840  17.408   0.581   5.639  0.1617  0.0950 -0.3072
    1DIPC   C1B 8841  16.778   0.694   6.236 -0.1128 -0.0451 -0.1091
    1DIPC   D2B 8842  17.057   0.709   5.915  0.0681  0.0218  0.1109
    1DIPC   D3B 8843  17.032   0.906   5.431  0.1697 -0.0135 -0.0771
    1DIPC   C4B 8844  17.326   0.601   5.113  0.2467  0.1025 -0.2401
    1DIPC   NC3 8845   1.021  24.411   6.110  0.3956 -0.1029  0.0786
    1DIPC   PO4 8846   1.224  24.178   5.815  0.1897  0.0879 -0.1832
    1DIPC   GL1 8847   1.500  24.287   5.456 -0.1507 -0.0191 -0.0747
    1DIPC   GL2 8848   1.626  24.065   5.205 -0.0739  0.1745 -0.2802
    1DIPC   C1A 8849   1.299  24.388   5.036  0.3868 -0.1273  0.0171
    1DIPC   D2A 8850   1.165  24.474   4.629 -0.0859  0.2613  0.0342
    1DIPC   D3A 8851   1.169  24.628   4.214  0.1062  0.2980  0.0018
    1DIPC   C4A 8852   0.838  25.019   4.133 -0.2119 -0.0659 -0.0603
    1DIPC   C1B 8853   1.691  24.154   4.760  0.2210 -0.0705 -0.2984
    1DIPC   D2B 8854   1.640  24.368   4.396  0.0158 -0.1687  0.2392
    1DIPC   D3B 8855   1.718  24.101   4.120  0.2849 -0.1466  0.4414
    1DIPC   C4B 8856   2.107  24.158   3.904  0.0344 -0.0533 -0.1160
    1DIPC   NC3 8857  13.163  23.117   6.314 -0.0704  0.3858 -0.2304
    1DIPC   PO4 8858  12.629  23.109   6.338  0.0104 -0.0384  0.0398
    1DIPC   GL1 8859  12.721  23.110   5.997 -0.0453  0.0101  0.1436
    1DIPC   GL2 8860  12.394  23.143   5.680 -0.1653 -0.0217  0.1273
    1DIPC   C1A 8861  13.017  23.056   5.656 -0.0299 -0.0229  0.1689
    1DIPC   D2A 8862  13.168  23.184   5.246  0.0321  0.3575  0.0112
    1DIPC   D3A 8863  13.585  23.198   5.358  0.1263  0.0734 -0.0544
    1DIPC   C4A 8864  13.846  23.042   5.018 -0.3546  0.2612 -0.3159
    1DIPC   C1B 8865  12.315  23.163   5.208  0.0328 -0.1495 -0.0797
    1DIPC   D2B 8866  12.345  22.989   4.877  0.0239 -0.0067  0.0932
    1DIPC   D3B 8867  11.922  22.825   4.895 -0.0709 -0.3753  0.2610
    1DIPC   C4B 8868  11.621  22.769   4.521 -0.3016  0.0598 -0.2094
    1DIPC   NC3 8869  25.285  10.022   5.631 -0.2290 -0.0376 -0.1261
    1DIPC   PO4 8870  25.382   9.605   5.652  0.1206  0.2367  0.0617
    1DIPC   GL1 8871  25.255   9.489   5.255  0.0670  0.0602  0.2805
    1DIPC   GL2 8872  25.024   9.588   5.030  0.1950  0.0663 -0.3183
    1DIPC   C1A 8873  25.226   9.049   5.095 -0.0640  0.3157 -0.0987
    1DIPC   D2A 8874  25.561   8.672   5.298  0.1732 -0.0569 -0.3295
    1DIPC   D3A 8875  25.253   8.508   5.040  0.2705 -0.0854  0.3511
    1DIPC   C4A 8876  24.876   8.212   5.005  0.1260  0.2974 -0.1392
    1DIPC   C1B 8877  24.932   9.783   4.741 -0.2885 -0.2626  0.0954
    1DIPC   D2B 8878  24.633   9.752   4.429  0.1854 -0.4190 -0.0848
    1DIPC   D3B 8879  24.968   9.747   4.190 -0.0473 -0.1161 -0.1594
    1DIPC   C4B 8880  25.305   9.411   4.167  0.2270  0.2768  0.2442
    1DIPC   NC3 8881  24.954  24.984   6.557  0.1360 -0.0217 -0.2537
    1DIPC   PO4 8882  24.977  24.654   6.276 -0.1837  0.0841  0.0908
    1DIPC   GL1 8883  24.778  24.470   5.942 -0.3140  0.3152  0.0478
    1DIPC   GL2 8884  25.022  24.083   5.942 -0.0134 -0.1850 -0.0905
    1DIPC   C1A 8885  24.650  24.341   5.519 -0.0856  0.1843 -0.3010
    1DIPC   D2A 8886  24.618  23.991   5.230 -0.0562 -0.1498 -0.0476
    1DIPC   D3A 8887  24.402  24.112   4.835 -0.0851 -0.0242 -0.1798
    1DIPC   C4A 8888  24.489  24.571   4.818  0.3076  0.0264  0.3431
    1DIPC   C1B 8889  25.344  24.357   5.690 -0.0041  0.1383 -0.2106
    1DIPC   D2B 8890  25.134  24.714   5.532  0.0906  0.0519 -0.1590
    1DIPC   D3B 8891  25.101  24.982   5.200  0.1052 -0.0543 -0.0029
    1DIPC   C4B 8892  24.815  25.344   5.238 -0.0753  0.0960  0.0783
    1DIPC   NC3 8893  20.936  29.070   6.863 -0.1467 -0.1998  0.1511
    1DIPC   PO4 8894  20.608  29.366   6.838 -0.0117 -0.1060 -0.0647
    1DIPC   GL1 8895  20.315  29.645   6.586 -0.0899  0.0169 -0.0778
    1DIPC   GL2 8896  20.397  29.480   6.263 -0.0059 -0.2464  0.2605
    1DIPC   C1A 8897  20.443  29.994   6.397 -0.0491 -0.1043 -0.0804
    1DIPC   D2A 8898  20.680  30.260   6.091 -0.1480 -0.0840  0.1400
    1DIPC   D3A 8899  21.130  30.223   5.821 -0.1289  0.1807 -0.0089
    1DIPC   C4A 8900  21.093  30.198   5.376  0.0487  0.2761 -0.0682
    1DIPC   C1B 8901  20.703  29.723   5.884 -0.1527 -0.1689  0.0174
    1DIPC   D2B 8902  20.708  29.951   5.569  0.2368  0.0269  0.0741
    1DIPC   D3B 8903  20.946  29.673   5.332  0.1267 -0.2690 -0.1796
    1DIPC   C4B 8904  21.159  29.865   5.027 -0.3341  0.1099 -0.1059
    1DIPC   NC3 8905   1.926  19.485   5.175 -0.0855  0.0642  0.3375
    1DIPC   PO4 8906   2.423  19.640   5.119  0.2757  0.0214  0.0386
    1DIPC   GL1 8907   2.171  19.539   4.746  0.1159  0.1437 -0.0821
    1DIPC   GL2 8908   1.874  19.645   4.653  0.1175 -0.0388 -0.2798
    1DIPC   C1A 8909   2.095  19.140   4.510 -0.0746  0.1956 -0.1009
    1DIPC   D2A 8910   2.130  18.939   4.089  0.3915 -0.0499 -0.0933
    1DIPC   D3A 8911   1.940  18.793   3.799 -0.3459  0.1687  0.0047
    1DIPC   C4A 8912   2.240  18.671   3.499  0.0071  0.3424  0.1112
    1DIPC   C1B 8913   1.702  19.610   4.315 -0.1094 -0.1609  0.1293
    1DIPC   D2B 8914   1.813  19.308   4.034  0.2230 -0.3409 -0.0748
    1DIPC   D3B 8915   1.455  19.156   3.965 -0.0632 -0.2238  0.0619
    1DIPC   C4B 8916   1.141  19.396   3.700  0.3634 -0.2261 -0.3628
    1DIPC   NC3 8917  24.958  12.441   5.427 -0.2304 -0.1345 -0.2104
    1DIPC   PO4 8918  25.391  12.637   5.419  0.0049  0.1558  0.1994
    1DIPC   GL1 8919  25.073  12.873   5.193  0.2256  0.0095 -0.0226
    1DIPC   GL2 8920  24.942  13.159   5.295 -0.0213  0.1652 -0.0169
    1DIPC   C1A 8921  24.839  12.815   4.852  0.3322 -0.4301 -0.1285
    1DIPC   D2A 8922  24.919  12.366   4.886  0.2183 -0.1818  0.1603
    1DIPC   D3A 8923  25.365  12.531   4.928  0.2471  0.0510 -0.1624
    1DIPC   C4A 8924  25.445  13.065   4.794 -0.0353 -0.0039 -0.3479
    1DIPC   C1B 8925  24.838  13.296   4.898 -0.0673 -0.2583 -0.0625
    1DIPC   D2B 8926  24.868  13.146   4.471 -0.0741 -0.0502  0.0392
    1DIPC   D3B 8927  24.512  13.373   4.198  0.3546 -0.1593 -0.1498
    1DIPC   C4B 8928  24.160  13.123   4.133  0.1594 -0.0601 -0.1273
    1DIPC   NC3 8929   0.283  15.862   5.583 -0.3028 -0.1332 -0.1187
    1DIPC   PO4 8930  -0.105  15.979   5.417 -0.0746 -0.1398  0.3349
    1DIPC   GL1 8931   0.176  15.846   5.107  0.0278 -0.2176  0.3651
    1DIPC   GL2 8932   0.252  16.014   4.856  0.2741 -0.2075  0.0700
    1DIPC   C1A 8933   0.370  15.412   4.855  0.0380 -0.1401  0.1306
    1DIPC   D2A 8934   0.809  15.261   4.996  0.0537 -0.1532  0.1762
    1DIPC   D3A 8935   0.841  15.490   4.626 -0.1546  0.1869 -0.0904
    1DIPC   C4A 8936   0.856  15.363   4.188 -0.1001 -0.1134  0.3205
    1DIPC   C1B 8937   0.110  16.061   4.469  0.1025  0.0195 -0.2011
    1DIPC   D2B 8938   0.170  16.023   4.114 -0.0350  0.0839  0.1914
    1DIPC   D3B 8939  -0.110  15.961   3.845  0.1851  0.1196  0.2415
    1DIPC   C4B 8940  -0.283  15.572   3.809 -0.0427 -0.2533 -0.1382
    1DIPC   NC3 8941  13.111  10.686   8.094 -0.1361  0.1420  0.2767
    1DIPC   PO4 8942  13.234  10.336   7.765  0.1634  0.0878 -0.0463
    1DIPC   GL1 8943  12.929  10.306   7.505 -0.3829  0.2985 -0.0610
    1DIPC   GL2 8944  13.118  10.296   7.250 -0.1435 -0.1842  0.2809
    1DIPC   C1A 8945  12.656  10.043   7.091  0.0536  0.1639 -0.2998
    1DIPC   D2A 8946  12.717   9.876   6.641  0.1176 -0.1522  0.0379
    1DIPC   D3A 8947  13.007   9.985   6.348 -0.1856  0.0681 -0.0874
    1DIPC   C4A 8948  13.056   9.866   5.886 -0.0187  0.2020  0.0361
    1DIPC   C1B 8949  13.284  10.617   7.055 -0.2582 -0.2751  0.0803
    1DIPC   D2B 8950  13.288  11.101   6.900 -0.1379 -0.2659 -0.1828
    1DIPC   D3B 8951  13.484  10.874   6.586  0.0426 -0.0767 -0.0063
    1DIPC   C4B 8952  13.384  10.958   6.137 -0.3412  0.2273 -0.0027
    1DIPC   NC3 8953  21.348   6.059   7.090  0.1091 -0.0161  0.0190
    1DIPC   PO4 8954  21.358   6.287   7.001  0.0322 -0.0613  0.2322
    1DIPC   GL1 8955  21.342   6.193   6.537 -0.1245  0.2520  0.0371
    1DIPC   GL2 8956  21.552   6.402   6.330 -0.1452  0.0175 -0.3060
    1DIPC   C1A 8957  21.201   6.221   6.077  0.1411 -0.1484 -0.0377
    1DIPC   D2A 8958  20.984   6.196   5.699 -0.1473  0.2788  0.2217
    1DIPC   D3A 8959  21.434   6.208   5.543 -0.0434  0.2172 -0.1460
    1DIPC   C4A 8960  21.782   6.481   5.470 -0.1035  0.0556  0.1874
    1DIPC   C1B 8961  21.753   6.784   6.356  0.0232  0.0932  0.3036
    1DIPC   D2B 8962  22.193   6.876   6.346  0.0731 -0.1005 -0.2847
    1DIPC   D3B 8963  21.994   6.759   5.839 -0.2909 -0.0501 -0.0535
    1DIPC   C4B 8964  22.180   6.767   5.380  0.0358 -0.0155 -0.0581
    1DIPC   NC3 8965  25.403  19.990   6.113  0.0202  0.0157 -0.0356
    1DIPC   PO4 8966  25.535  19.480   6.005  0.1877 -0.0404  0.4794
    1DIPC   GL1 8967  25.448  19.517   5.579 -0.2094  0.1871  0.0913
    1DIPC   GL2 8968  25.445  19.966   5.581  0.3239 -0.0342 -0.0057
    1DIPC   C1A 8969  25.408  19.768   5.179  0.0638 -0.1683  0.1786
    1DIPC   D2A 8970  25.118  19.851   4.841  0.2060  0.2281 -0.1257
    1DIPC   D3A 8971  25.080  20.000   4.396 -0.1230  0.4509  0.1089
    1DIPC   C4A 8972  25.255  20.347   4.390  0.2843  0.1130 -0.0960
    1DIPC   C1B 8973  25.030  19.779   5.480 -0.3573  0.1156 -0.1217
    1DIPC   D2B 8974  24.887  19.551   5.196 -0.3023 -0.0718  0.5204
    1DIPC   D3B 8975  24.613  19.706   4.871  0.0199 -0.2895 -0.0173
    1DIPC   C4B 8976  24.399  19.481   4.530  0.0611 -0.1170 -0.0466
    1DIPC   NC3 8977  26.415  21.799   6.569  0.2856 -0.2322 -0.1450
    1DIPC   PO4 8978  26.142  21.793   6.257  0.1856  0.2511 -0.2780
    1DIPC   GL1 8979  26.325  21.563   5.884 -0.0787 -0.1607  0.3621
    1DIPC   GL2 8980  26.297  21.165   5.901 -0.0502 -0.0097 -0.1793
    1DIPC   C1A 8981  26.698  21.555   5.695 -0.2184  0.2045 -0.1445
    1DIPC   D2A 8982  27.048  21.285   5.557 -0.1819 -0.0248  0.2199
    1DIPC   D3A 8983  26.722  21.173   5.292 -0.1392 -0.1542  0.5195
    1DIPC   C4A 8984  26.353  21.446   5.272 -0.0704  0.1645 -0.1066
    1DIPC   C1B 8985  25.961  21.323   5.645  0.1870 -0.0255  0.0306
    1DIPC   D2B 8986  25.763  21.062   5.325  0.2927 -0.1602 -0.2535
    1DIPC   D3B 8987  25.315  20.985   5.410  0.0372  0.2554 -0.2441
    1DIPC   C4B 8988  24.983  20.922   5.059  0.2223  0.0202 -0.0258
    1DIPC   NC3 8989  21.340   4.117   6.791 -0.2849 -0.0193 -0.1505
    1DIPC   PO4 8990  21.691   3.934   6.767 -0.2878 -0.3169 -0.2251
    1DIPC   GL1 8991  21.715   3.949   6.332  0.0328 -0.1068  0.1307
    1DIPC   GL2 8992  21.951   4.205   6.195  0.0208 -0.0464 -0.0365
    1DIPC   C1A 8993  21.597   3.741   5.970 -0.0050 -0.2109  0.1771
    1DIPC   D2A 8994  21.614   3.564   5.557 -0.0323 -0.0050 -0.0739
    1DIPC   D3A 8995  21.635   3.798   5.129  0.0209 -0.0262 -0.1874
    1DIPC   C4A 8996  21.250   3.997   5.083 -0.1836 -0.0131  0.1717
    1DIPC   C1B 8997  21.704   4.388   5.906  0.1990 -0.0678  0.0936
    1DIPC   D2B 8998  21.381   4.618   5.982  0.1828 -0.1560  0.1639
    1DIPC   D3B 8999  21.168   4.623   5.787  0.0861 -0.0724  0.2364
    1DIPC   C4B 9000  20.905   4.899   5.558 -0.0027 -0.1982 -0.1624
    1DIPC   NC3 9001  19.172  24.302   6.791 -0.1482 -0.0298  0.2885
    1DIPC   PO4 9002  19.336  24.551   6.467  0.4046  0.2331  0.0505
    1DIPC   GL1 9003  19.214  24.839   6.124 -0.1053  0.1205  0.0346
    1DIPC   GL2 9004  19.435  24.696   5.934  0.2223  0.1402  0.1412
    1DIPC   C1A 9005  18.803  24.919   5.929  0.0558 -0.2913 -0.0533
    1DIPC   D2A 9006  18.671  25.332   5.778 -0.2618  0.0279  0.1105
    1DIPC   D3A 9007  19.007  25.493   5.619  0.0188  0.1424 -0.0631
    1DIPC   C4A 9008  19.156  25.102   5.629 -0.0052  0.1878 -0.2574
    1DIPC   C1B 9009  19.507  24.355   5.667  0.1288 -0.0725 -0.0590
    1DIPC   D2B 9010  19.640  24.283   5.268 -0.1746 -0.1125  0.1590
    1DIPC   D3B 9011  19.475  24.008   4.955  0.2769 -0.1665 -0.0215
    1DIPC   C4B 9012  19.216  23.665   5.107 -0.0630 -0.0757 -0.1404
    1DIPC   NC3 9013  10.005   5.356   7.023 -0.2477 -0.0645  0.1484
    1DIPC   PO4 9014   9.586   5.388   6.932 -0.0441  0.2514  0.0316
    1DIPC   GL1 9015   9.657   5.539   6.453 -0.3898  0.3750  0.0043
    1DIPC   GL2 9016   9.781   5.875   6.350 -0.0412  0.0486  0.2608
    1DIPC   C1A 9017   9.739   5.555   6.020 -0.0725 -0.1564  0.0965
    1DIPC   D2A 9018   9.921   5.678   5.772  0.0807 -0.0008 -0.1340
    1DIPC   D3A 9019   9.824   5.967   5.426 -0.1527  0.0249 -0.0775
    1DIPC   C4A 9020   9.449   6.115   5.228 -0.1265  0.0183 -0.3629
    1DIPC   C1B 9021  10.175   5.969   6.124  0.2414  0.3064 -0.0734
    1DIPC   D2B 9022  10.226   6.103   5.688 -0.2787 -0.2244  0.1646
    1DIPC   D3B 9023   9.910   6.381   5.786 -0.0264 -0.1879 -0.1004
    1DIPC   C4B 9024   9.693   6.403   6.344 -0.0583  0.0783 -0.1905
    1DIPC   NC3 9025   0.563  23.391   5.845 -0.0303  0.2653  0.0901
    1DIPC   PO4 9026   0.499  23.848   5.951 -0.1300  0.1653  0.2503
    1DIPC   GL1 9027   0.353  23.863   5.535  0.2925  0.0144  0.0082
    1DIPC   GL2 9028  -0.023  23.867   5.452 -0.1381  0.5945  0.0258
    1DIPC   C1A 9029   0.617  23.991   5.186 -0.0964 -0.2654  0.2083
    1DIPC   D2A 9030   0.858  24.157   4.889  0.1765  0.0366  0.1591
    1DIPC   D3A 9031   0.683  23.938   4.448  0.2355  0.4138 -0.1649
    1DIPC   C4A 9032   0.418  23.719   4.242 -0.2156 -0.0956  0.1079
    1DIPC   C1B 9033   0.113  23.799   5.094  0.0124  0.6342 -0.0874
    1DIPC   D2B 9034   0.276  23.924   4.780  0.1115  0.0369  0.1039
    1DIPC   D3B 9035   0.572  23.594   4.828  0.2620 -0.1700  0.1418
    1DIPC   C4B 9036   0.986  23.670   4.891 -0.1239  0.2012  0.3255
    1DIPC   NC3 9037   9.780  22.173   6.411  0.1127  0.1691  0.0877
    1DIPC   PO4 9038  10.026  22.409   6.083 -0.1251  0.1313  0.0301
    1DIPC   GL1 9039  10.254  22.426   5.697 -0.0179 -0.1528 -0.1116
    1DIPC   GL2 9040  10.352  22.081   5.808 -0.1386 -0.0107  0.1478
    1DIPC   C1A 9041  10.150  22.611   5.330  0.3069  0.2076 -0.0851
    1DIPC   D2A 9042  10.032  22.511   4.905  0.2541 -0.1501  0.1213
    1DIPC   D3A 9043  10.444  22.645   4.728 -0.2971  0.2471 -0.0039
    1DIPC   C4A 9044  10.524  23.045   4.778 -0.0994 -0.2522  0.1302
    1DIPC   C1B 9045  10.692  21.829   5.607 -0.0577  0.0113 -0.0635
    1DIPC   D2B 9046  10.781  21.784   5.216  0.2021  0.0626  0.1456
    1DIPC   D3B 9047  10.246  21.729   5.290 -0.0427 -0.1403 -0.2429
    1DIPC   C4B 9048  10.037  22.108   5.178  0.0082  0.0409 -0.0270
    1DIPC   NC3 9049  17.731  23.617   6.979  0.1877 -0.1563 -0.1682
    1DIPC   PO4 9050  17.598  23.311   6.869 -0.1706 -0.0949 -0.1075
    1DIPC   GL1 9051  17.654  23.266   6.425 -0.2821 -0.1047 -0.0929
    1DIPC   GL2 9052  17.424  23.309   6.169 -0.0017  0.0559  0.0019
    1DIPC   C1A 9053  17.951  23.467   6.197 -0.4239 -0.0472 -0.0193
    1DIPC   D2A 9054  18.135  23.229   5.779 -0.0558 -0.0509  0.2222
    1DIPC   D3A 9055  17.771  23.599   5.745 -0.1661  0.1615 -0.0622
    1DIPC   C4A 9056  17.824  23.799   5.375 -0.3788  0.1816 -0.0486
    1DIPC   C1B 9057  17.534  23.184   5.695  0.4168 -0.1719 -0.0157
    1DIPC   D2B 9058  17.366  23.228   5.309 -0.1250 -0.2825  0.1391
    1DIPC   D3B 9059  17.804  23.301   5.203 -0.3153  0.0723 -0.1305
    1DIPC   C4B 9060  18.023  23.299   4.778  0.1159  0.0315  0.0589
    1DIPC   NC3 9061  23.026  17.076   5.948  0.2711 -0.2402  0.1899
    1DIPC   PO4 9062  22.776  17.333   6.156  0.2210 -0.1695  0.1618
    1DIPC   GL1 9063  22.390  17.569   6.002 -0.2117  0.0791 -0.0318
    1DIPC   GL2 9064  22.422  17.645   5.741 -0.1050  0.2448 -0.2468
    1DIPC   C1A 9065  21.908  17.565   5.864 -0.0825 -0.2427  0.0205
    1DIPC   D2A 9066  21.526  17.532   5.783 -0.0486  0.2427 -0.1472
    1DIPC   D3A 9067  21.491  17.760   5.512 -0.2683  0.0430  0.0783
    1DIPC   C4A 9068  21.498  18.182   5.602  0.1634 -0.3251  0.2211
    1DIPC   C1B 9069  22.289  17.549   5.286 -0.1547  0.1510  0.2665
    1DIPC   D2B 9070  22.412  17.745   4.905  0.1221  0.1727  0.2390
    1DIPC   D3B 9071  22.026  17.876   4.585  0.3894 -0.0074 -0.1689
    1DIPC   C4B 9072  21.682  18.128   4.601 -0.2344  0.1702 -0.1001
    1DIPC   NC3 9073   3.641  11.240   6.227  0.0939 -0.0876 -0.1013
    1DIPC   PO4 9074   3.551  10.837   6.134  0.0057  0.0668 -0.2678
    1DIPC   GL1 9075   3.210  11.078   5.912 -0.1793  0.3061 -0.3408
    1DIPC   GL2 9076   3.022  11.012   5.747  0.1839  0.2378  0.0504
    1DIPC   C1A 9077   3.366  11.345   5.568  0.0199  0.5402  0.0901
    1DIPC   D2A 9078   3.361  11.303   5.146 -0.0838  0.0375 -0.2170
    1DIPC   D3A 9079   3.616  11.019   5.191  0.4065 -0.0385  0.1020
    1DIPC   C4A 9080   3.553  10.925   4.732  0.3078 -0.1063 -0.0300
    1DIPC   C1B 9081   2.925  11.192   5.375  0.2746  0.1116 -0.1786
    1DIPC   D2B 9082   3.106  10.899   5.072  0.0023  0.0198 -0.0413
    1DIPC   D3B 9083   3.069  10.806   4.635 -0.1117 -0.1248 -0.0839
    1DIPC   C4B 9084   2.618  10.689   4.451 -0.3164 -0.0168 -0.2140
    1DIPC   NC3 9085   8.607  23.992   5.940 -0.1403  0.1018  0.1373
    1DIPC   PO4 9086   8.982  24.270   6.003 -0.2828 -0.1994  0.2303
    1DIPC   GL1 9087   8.763  24.389   5.654 -0.0158  0.0369 -0.0456
    1DIPC   GL2 9088   8.953  24.291   5.359  0.5136  0.1740  0.1187
    1DIPC   C1A 9089   8.430  24.543   5.406  0.1144 -0.0432 -0.1399
    1DIPC   D2A 9090   8.051  24.549   5.577 -0.2068  0.1207  0.2439
    1DIPC   D3A 9091   7.746  24.678   5.404 -0.1848  0.2013  0.2547
    1DIPC   C4A 9092   7.368  24.492   5.361 -0.0657 -0.2743 -0.0863
    1DIPC   C1B 9093   9.264  24.459   5.039  0.0812  0.0293  0.2236
    1DIPC   D2B 9094   9.333  24.360   4.581 -0.1216 -0.0211  0.0562
    1DIPC   D3B 9095   9.477  23.958   4.381  0.1156 -0.3808  0.1564
    1DIPC   C4B 9096   9.970  23.883   4.367 -0.0687  0.1337 -0.1509
    1DIPC   NC3 9097   6.592  29.842   7.501  0.0411 -0.0067  0.3666
    1DIPC   PO4 9098   6.615  29.507   7.075 -0.1741 -0.1877  0.1442
    1DIPC   GL1 9099   6.254  29.512   6.778  0.2629 -0.0676 -0.1629
    1DIPC   GL2 9100   6.224  29.200   6.610  0.1894  0.1544 -0.0737
    1DIPC   C1A 9101   5.797  29.675   6.690  0.1950  0.0022  0.2480
    1DIPC   D2A 9102   5.595  29.841   6.352 -0.2349  0.0173 -0.0971
    1DIPC   D3A 9103   5.598  29.594   5.965  0.0885  0.1126  0.1809
    1DIPC   C4A 9104   5.227  29.714   5.695 -0.1629  0.0125 -0.0462
    1DIPC   C1B 9105   6.473  29.136   6.305 -0.1074  0.2577 -0.2665
    1DIPC   D2B 9106   6.649  29.095   5.843 -0.0001 -0.0945 -0.3396
    1DIPC   D3B 9107   7.044  29.280   5.666 -0.0867 -0.3426 -0.1334
    1DIPC   C4B 9108   7.109  29.288   5.293  0.2018  0.1680 -0.2272
    1DIPC   NC3 9109  25.451  21.438   6.645  0.3187 -0.0412 -0.0470
    1DIPC   PO4 9110  25.169  21.206   6.236  0.3086 -0.1047 -0.0280
    1DIPC   GL1 9111  25.014  21.201   5.732  0.0739 -0.1126 -0.0090
    1DIPC   GL2 9112  25.113  21.399   5.416 -0.0626 -0.1835 -0.4037
    1DIPC   C1A 9113  24.656  21.099   5.477  0.1143  0.0383 -0.0484
    1DIPC   D2A 9114  24.407  21.147   5.103 -0.0657 -0.3464 -0.3290
    1DIPC   D3A 9115  24.394  21.283   4.771 -0.0412 -0.0637 -0.0813
    1DIPC   C4A 9116  24.647  21.440   4.561  0.0816 -0.1879 -0.3223
    1DIPC   C1B 9117  24.943  21.464   5.021 -0.0429  0.0045 -0.1029
    1DIPC   D2B 9118  25.094  21.255   4.563 -0.0140  0.2639  0.2317
    1DIPC   D3B 9119  25.245  20.820   4.538  0.1261 -0.2106  0.1711
    1DIPC   C4B 9120  25.582  20.750   4.347  0.2753  0.0584 -0.2134
    1DIPC   NC3 9121  22.912  20.908   6.367 -0.0032  0.1235  0.0747
    1DIPC   PO4 9122  22.461  20.948   6.324  0.0134 -0.0047  0.0084
    1DIPC   GL1 9123  22.536  21.019   5.858 -0.2923 -0.5164  0.3170
    1DIPC   GL2 9124  22.307  21.087   5.704  0.0247  0.0088  0.2732
    1DIPC   C1A 9125  22.705  20.868   5.494 -0.3892  0.0972 -0.1206
    1DIPC   D2A 9126  22.918  20.999   5.214  0.3939 -0.0882  0.0255
    1DIPC   D3A 9127  23.033  21.361   4.926 -0.2444  0.0787 -0.0546
    1DIPC   C4A 9128  23.333  21.498   4.635  0.3007 -0.1622 -0.1184
    1DIPC   C1B 9129  22.164  20.941   5.283  0.2621 -0.1246  0.0638
    1DIPC   D2B 9130  22.084  20.862   4.894 -0.4297 -0.0750  0.1566
    1DIPC   D3B 9131  22.151  20.763   4.441  0.1360 -0.0302  0.2032
    1DIPC   C4B 9132  21.998  21.026   4.140 -0.1040  0.1272  0.1889
    1DIPC   NC3 9133  21.877  24.308   6.570  0.6192 -0.0002 -0.1029
    1DIPC   PO4 9134  22.038  24.792   6.520 -0.1020 -0.0153 -0.0344
    1DIPC   GL1 9135  21.816  24.980   6.200 -0.0937  0.0313 -0.1219
    1DIPC   GL2 9136  21.589  24.727   6.166 -0.0479  0.2935  0.0116
    1DIPC   C1A 9137  21.831  25.138   5.826 -0.3128  0.0050 -0.0822
    1DIPC   D2A 9138  21.897  25.165   5.405 -0.1454 -0.2627  0.0449
    1DIPC   D3A 9139  21.810  25.539   5.095 -0.3171 -0.1584  0.2199
    1DIPC   C4A 9140  21.988  25.396   4.674  0.0004  0.0102 -0.0242
    1DIPC   C1B 9141  21.341  24.624   5.750  0.0828 -0.0383 -0.2129
    1DIPC   D2B 9142  21.387  24.901   5.405 -0.1497 -0.0106 -0.1104
    1DIPC   D3B 9143  21.052  24.890   5.116  0.1228  0.0645  0.1990
    1DIPC   C4B 9144  20.701  24.520   5.096  0.1511  0.0882 -0.1040
    1DIPC   NC3 9145  27.407  23.100   6.877  0.2828 -0.0890 -0.1781
    1DIPC   PO4 9146  27.509  22.846   6.479 -0.0983  0.1000  0.1045
    1DIPC   GL1 9147  27.323  22.896   6.029 -0.2419 -0.1063  0.2232
    1DIPC   GL2 9148  27.426  22.618   5.903  0.0089  0.0392  0.0004
    1DIPC   C1A 9149  27.265  23.010   5.534 -0.0821 -0.0306 -0.2370
    1DIPC   D2A 9150  27.023  23.264   5.267  0.0617  0.0238  0.0552
    1DIPC   D3A 9151  27.126  23.135   4.872  0.1608 -0.1246 -0.1498
    1DIPC   C4A 9152  27.490  23.089   4.632 -0.3970 -0.2631 -0.2710
    1DIPC   C1B 9153  27.513  22.633   5.438 -0.1924 -0.1347  0.2221
    1DIPC   D2B 9154  27.483  22.876   5.093 -0.0530 -0.0221 -0.1577
    1DIPC   D3B 9155  27.587  22.515   4.845 -0.1783 -0.0586 -0.1997
    1DIPC   C4B 9156  27.856  22.718   4.571 -0.0861  0.3196 -0.0095
    1DIPC   NC3 9157  27.814  17.873   5.642 -0.1491  0.1654  0.2370
    1DIPC   PO4 9158  27.575  17.439   5.765 -0.1360  0.0055  0.2022
    1DIPC   GL1 9159  27.527  17.272   5.301 -0.2409  0.0655 -0.2822
    1DIPC   GL2 9160  27.285  17.553   5.311  0.0390  0.0689  0.0256
    1DIPC   C1A 9161  27.532  17.193   4.870 -0.2005  0.0939 -0.0115
    1DIPC   D2A 9162  27.416  16.905   4.448 -0.0997  0.0240 -0.1804
    1DIPC   D3A 9163  27.169  17.002   4.142 -0.2360 -0.1881 -0.1311
    1DIPC   C4A 9164  26.730  17.195   4.243 -0.2633  0.0696 -0.2855
    1DIPC   C1B 9165  27.599  17.684   4.952 -0.0890 -0.1095  0.0394
    1DIPC   D2B 9166  27.687  17.758   4.560 -0.0229  0.3396 -0.1672
    1DIPC   D3B 9167  27.691  17.386   4.330 -0.1025  0.0575 -0.0689
    1DIPC   C4B 9168  27.846  17.456   3.881  0.3913  0.1683 -0.0291
    1DIPC   NC3 9169   4.545  13.037   6.767 -0.2548 -0.1009  0.2453
    1DIPC   PO4 9170   4.889  12.847   6.544  0.1992 -0.2040  0.0495
    1DIPC   GL1 9171   5.206  12.687   6.302 -0.0434 -0.5070 -0.0983
    1DIPC   GL2 9172   5.010  12.814   6.060 -0.0374 -0.3351  0.1347
    1DIPC   C1A 9173   5.577  12.605   6.127  0.1190 -0.2429 -0.3107
    1DIPC   D2A 9174   5.957  12.560   5.861 -0.5063 -0.0899  0.1253
    1DIPC   D3A 9175   6.135  12.171   5.744 -0.0377 -0.2681  0.1547
    1DIPC   C4A 9176   6.295  12.050   5.341  0.1277  0.3228  0.3141
    1DIPC   C1B 9177   5.170  12.818   5.594 -0.1232  0.1949  0.2290
    1DIPC   D2B 9178   5.362  13.085   5.369 -0.2434  0.1815  0.0691
    1DIPC   D3B 9179   5.549  12.662   5.242 -0.1042  0.0382 -0.2229
    1DIPC   C4B 9180   5.353  12.646   4.844 -0.2338  0.0427 -0.0358
    1DIPC   NC3 9181  15.304   4.087   7.258 -0.0171  0.0529  0.0131
    1DIPC   PO4 9182  15.007   4.495   7.209 -0.5649 -0.1728 -0.2111
    1DIPC   GL1 9183  15.077   4.393   6.763 -0.0730  0.0495 -0.1584
    1DIPC   GL2 9184  15.255   4.216   6.727 -0.1188  0.3172  0.1721
    1DIPC   C1A 9185  15.146   4.488   6.282  0.1398 -0.0233  0.0087
    1DIPC   D2A 9186  14.812   4.384   5.948  0.0188 -0.0492  0.0896
    1DIPC   D3A 9187  15.053   4.685   5.769  0.0482 -0.0233  0.1607
    1DIPC   C4A 9188  15.352   4.605   5.422  0.0620 -0.0083  0.2868
    1DIPC   C1B 9189  15.135   3.937   6.400  0.1425 -0.0946  0.1015
    1DIPC   D2B 9190  14.715   3.908   6.188 -0.0321  0.0304  0.1445
    1DIPC   D3B 9191  14.694   3.966   5.722  0.0283  0.3733  0.3854
    1DIPC   C4B 9192  14.344   3.773   5.471  0.0341  0.1741 -0.0677
    1DIPC   NC3 9193  19.723  27.027   6.665 -0.1861 -0.0947  0.1519
    1DIPC   PO4 9194  19.206  27.200   6.734 -0.3274 -0.0928  0.3408
    1DIPC   GL1 9195  19.230  27.090   6.281 -0.4839 -0.0548 -0.1928
    1DIPC   GL2 9196  19.584  27.179   6.236  0.2313 -0.0706  0.1527
    1DIPC   C1A 9197  19.327  27.132   5.834 -0.1792  0.0416 -0.0932
    1DIPC   D2A 9198  19.431  27.312   5.464 -0.0439  0.1203 -0.0897
    1DIPC   D3A 9199  19.665  27.362   5.041 -0.0138  0.0856 -0.2956
    1DIPC   C4A 9200  19.984  27.766   5.022 -0.1151  0.1851  0.0995
    1DIPC   C1B 9201  19.832  26.929   5.947 -0.1634 -0.0168  0.4208
    1DIPC   D2B 9202  19.984  26.596   5.640  0.1470 -0.2932 -0.3043
    1DIPC   D3B 9203  19.722  26.849   5.482  0.0806  0.1869 -0.1893
    1DIPC   C4B 9204  19.292  26.728   5.515 -0.2127  0.1326  0.0391
    1DIPC   NC3 9205   2.790  18.081   5.394  0.0011  0.0048  0.4050
    1DIPC   PO4 9206   3.098  18.458   5.227 -0.1799  0.0346  0.2343
    1DIPC   GL1 9207   3.329  18.582   4.846 -0.3266  0.1012 -0.0022
    1DIPC   GL2 9208   3.041  18.647   4.732  0.1034 -0.2813  0.1141
    1DIPC   C1A 9209   3.543  18.776   4.480  0.0897 -0.2848 -0.0591
    1DIPC   D2A 9210   3.670  18.757   4.052 -0.1806 -0.1371 -0.1042
    1DIPC   D3A 9211   3.632  18.731   3.554  0.0662  0.2798  0.0385
    1DIPC   C4A 9212   3.726  19.031   3.272 -0.1039  0.1758  0.3566
    1DIPC   C1B 9213   3.108  18.527   4.414 -0.2191 -0.0448  0.0725
    1DIPC   D2B 9214   2.973  18.347   3.997  0.1961 -0.0145  0.0620
    1DIPC   D3B 9215   3.411  18.294   3.801  0.0202 -0.2514 -0.3790
    1DIPC   C4B 9216   3.406  18.062   3.309 -0.2730  0.3026 -0.1919
    1DIPC   NC3 9217  21.656  17.461   6.960  0.3001 -0.4968  0.2362
    1DIPC   PO4 9218  21.351  17.474   6.609 -0.1061 -0.2576  0.2748
    1DIPC   GL1 9219  21.132  17.502   6.158  0.1613  0.0020  0.3719
    1DIPC   GL2 9220  20.859  17.336   6.099  0.1425 -0.2820 -0.1949
    1DIPC   C1A 9221  21.004  17.519   5.584  0.0211 -0.0266 -0.2385
    1DIPC   D2A 9222  20.795  17.368   5.182 -0.0275 -0.0509 -0.3088
    1DIPC   D3A 9223  20.941  17.540   4.797 -0.3191 -0.1803 -0.0381
    1DIPC   C4A 9224  20.775  17.361   4.580 -0.0273 -0.0783  0.3442
    1DIPC   C1B 9225  20.675  17.131   5.710  0.0479  0.2519 -0.1155
    1DIPC   D2B 9226  20.741  16.667   5.735 -0.2099  0.1524  0.1509
    1DIPC   D3B 9227  20.873  16.573   5.310 -0.1918 -0.2508  0.1998
    1DIPC   C4B 9228  20.728  16.403   4.966  0.1431  0.1308 -0.0754
    1DIPC   NC3 9229  24.481  12.015   5.911  0.0268  0.0216 -0.2542
    1DIPC   PO4 9230  24.899  11.970   5.772 -0.1854  0.2930  0.0884
    1DIPC   GL1 9231  24.860  11.874   5.337  0.0417 -0.1051  0.3153
    1DIPC   GL2 9232  25.060  11.671   5.165  0.0714  0.0629  0.0586
    1DIPC   C1A 9233  24.567  12.017   5.007 -0.1892  0.2606  0.2481
    1DIPC   D2A 9234  24.162  11.947   4.998 -0.1501  0.0259  0.0781
    1DIPC   D3A 9235  24.012  12.367   5.048  0.2722 -0.1695  0.1207
    1DIPC   C4A 9236  23.998  12.565   5.411 -0.3230  0.0282  0.0869
    1DIPC   C1B 9237  24.971  11.938   4.746  0.3736  0.3047  0.1895
    1DIPC   D2B 9238  25.153  12.132   4.382 -0.3440 -0.0689  0.1061
    1DIPC   D3B 9239  24.730  12.269   4.402 -0.2543 -0.1087 -0.1096
    1DIPC   C4B 9240  24.671  12.669   4.352 -0.0522 -0.2454  0.2161
    1DIPC   NC3 9241  20.665   3.921   7.173 -0.2087  0.0411 -0.0848
    1DIPC   PO4 9242  20.928   3.834   6.879 -0.0766 -0.0373 -0.1842
    1DIPC   GL1 9243  20.964   4.063   6.496  0.2999  0.2474 -0.0529
    1DIPC   GL2 9244  20.743   4.031   6.337  0.0611  0.1203 -0.2263
    1DIPC   C1A 9245  21.232   4.162   6.080  0.3912 -0.0583 -0.1001
    1DIPC   D2A 9246  21.295   4.095   5.607 -0.0323  0.2240 -0.0259
    1DIPC   D3A 9247  21.405   4.413   5.380 -0.1868 -0.0674  0.0978
    1DIPC   C4A 9248  21.159   4.753   5.154 -0.0884 -0.1524  0.0611
    1DIPC   C1B 9249  20.757   4.050   5.850  0.2848  0.1779  0.0359
    1DIPC   D2B 9250  20.403   4.300   5.669  0.1073 -0.0435 -0.2360
    1DIPC   D3B 9251  20.002   3.973   5.715 -0.0022 -0.2636  0.0827
    1DIPC   C4B 9252  19.804   3.838   6.073 -0.0734  0.0659  0.1002
    1DIPC   NC3 9253  18.542   7.459   7.388  0.1310  0.0223 -0.1246
    1DIPC   PO4 9254  18.293   7.389   6.996 -0.2927 -0.4472 -0.0422
    1DIPC   GL1 9255  18.190   7.493   6.512  0.1133 -0.1641 -0.2074
    1DIPC   GL2 9256  17.894   7.244   6.440 -0.0477 -0.1119  0.0070
    1DIPC   C1A 9257  18.071   7.493   6.029  0.0520 -0.2020  0.1578
    1DIPC   D2A 9258  17.963   7.385   5.656 -0.1390  0.2382 -0.2657
    1DIPC   D3A 9259  17.841   7.198   5.239  0.1223 -0.1680  0.1540
    1DIPC   C4A 9260  18.129   7.374   4.926 -0.0406 -0.1215 -0.1305
    1DIPC   C1B 9261  17.792   6.862   6.415  0.2006 -0.0006 -0.0560
    1DIPC   D2B 9262  17.939   6.469   6.100  0.4840 -0.1839  0.1106
    1DIPC   D3B 9263  17.959   6.798   5.784  0.1247  0.1367 -0.4052
    1DIPC   C4B 9264  17.810   6.671   5.366  0.0599 -0.0712  0.0907
    1DIPC   NC3 9265  23.305   1.177   6.868 -0.1318 -0.0174 -0.2827
    1DIPC   PO4 9266  23.541   0.849   6.834 -0.0707 -0.0322 -0.2670
    1DIPC   GL1 9267  23.573   0.500   6.510 -0.1443 -0.0563 -0.4352
    1DIPC   GL2 9268  23.273   0.434   6.326 -0.0987 -0.1313  0.0479
    1DIPC   C1A 9269  23.776   0.242   6.136  0.1053  0.4156  0.0230
    1DIPC   D2A 9270  23.955  -0.052   5.773 -0.0333 -0.0477  0.0011
    1DIPC   D3A 9271  24.371  -0.322   5.804 -0.2275 -0.0100 -0.1031
    1DIPC   C4A 9272  24.657  -0.703   5.749 -0.3647  0.0860 -0.0103
    1DIPC   C1B 9273  23.484   0.619   6.063  0.3059  0.1850  0.0378
    1DIPC   D2B 9274  23.843   0.871   6.001  0.1017  0.0521 -0.1230
    1DIPC   D3B 9275  24.057   0.992   5.633 -0.1687 -0.2923 -0.1700
    1DIPC   C4B 9276  23.828   1.024   5.230 -0.1663 -0.0359 -0.0949
    1DIPC   NC3 9277   6.871  29.117   7.211 -0.0407  0.1222  0.1042
    1DIPC   PO4 9278   7.116  28.796   6.927  0.0979 -0.2096  0.1425
    1DIPC   GL1 9279   7.055  28.776   6.522 -0.0310  0.0707  0.0359
    1DIPC   GL2 9280   7.248  29.021   6.460 -0.2157 -0.2625 -0.0478
    1DIPC   C1A 9281   6.810  28.758   6.236 -0.4662  0.1375  0.0423
    1DIPC   D2A 9282   6.409  28.580   6.380 -0.2421 -0.1857 -0.0360
    1DIPC   D3A 9283   6.356  28.710   5.999 -0.1545  0.2111 -0.1056
    1DIPC   C4A 9284   6.160  29.112   5.819  0.0209  0.1315  0.0385
    1DIPC   C1B 9285   6.933  29.287   6.274 -0.0542 -0.2607 -0.0806
    1DIPC   D2B 9286   6.706  29.540   6.575  0.3600 -0.0994 -0.1123
    1DIPC   D3B 9287   6.518  29.757   6.354  0.0593 -0.2187  0.0913
    1DIPC   C4B 9288   6.746  29.670   5.921 -0.2270  0.0343 -0.0773
    1DIPC   NC3 9289  19.173  19.481   6.397  0.0510 -0.2099  0.3324
    1DIPC   PO4 9290  19.134  19.918   6.371 -0.0689 -0.1806 -0.1833
    1DIPC   GL1 9291  19.112  20.074   5.933 -0.1941  0.1011 -0.1333
    1DIPC   GL2 9292  19.439  20.254   5.712 -0.1774 -0.0786  0.2305
    1DIPC   C1A 9293  19.174  19.846   5.527 -0.0132  0.0900  0.3078
    1DIPC   D2A 9294  19.158  19.740   5.155 -0.0909 -0.1719  0.3498
    1DIPC   D3A 9295  18.774  19.620   5.022 -0.0754  0.0425  0.0804
    1DIPC   C4A 9296  18.474  19.868   4.803 -0.0305  0.3701  0.1365
    1DIPC   C1B 9297  19.642  20.521   5.480 -0.2458 -0.2340 -0.0667
    1DIPC   D2B 9298  19.661  20.727   5.017  0.4850 -0.0325  0.1786
    1DIPC   D3B 9299  19.707  20.820   4.525 -0.1832 -0.2921 -0.1839
    1DIPC   C4B 9300  19.603  21.216   4.558 -0.2360 -0.0451 -0.1716
    1DIPC   NC3 9301   9.278   2.383   6.716 -0.1140  0.0596 -0.1383
    1DIPC   PO4 9302   8.967   2.568   6.520  0.3128 -0.0190  0.1409
    1DIPC   GL1 9303   9.225   2.549   6.189 -0.0059  0.0658 -0.1069
    1DIPC   GL2 9304   9.479   2.614   6.159 -0.1442 -0.1163  0.1406
    1DIPC   C1A 9305   9.174   2.295   5.808 -0.0811 -0.1526 -0.2259
    1DIPC   D2A 9306   9.063   2.177   5.439 -0.1128  0.1539  0.0551
    1DIPC   D3A 9307   9.333   2.532   5.236  0.3413  0.0878  0.4072
    1DIPC   C4A 9308   9.180   2.814   4.976 -0.1872 -0.3346 -0.0315
    1DIPC   C1B 9309   9.639   2.519   5.721  0.1509  0.0863  0.0720
    1DIPC   D2B 9310   9.615   2.177   5.380  0.1034 -0.0109  0.3550
    1DIPC   D3B 9311   9.777   1.889   5.615  0.3023 -0.0797  0.4886
    1DIPC   C4B 9312  10.008   1.563   5.464  0.3696  0.0218  0.1307
    1DIPC   NC3 9313  23.953  24.913   6.845 -0.0826  0.1011 -0.3097
    1DIPC   PO4 9314  23.822  24.579   6.577 -0.3774  0.0628 -0.3076
    1DIPC   GL1 9315  23.925  24.464   6.114 -0.2188  0.2052  0.3119
    1DIPC   GL2 9316  23.773  24.329   5.805  0.0483 -0.0538 -0.1290
    1DIPC   C1A 9317  24.155  24.698   5.802 -0.0941  0.1446  0.0376
    1DIPC   D2A 9318  23.985  24.873   5.430  0.1133  0.1455 -0.2870
    1DIPC   D3A 9319  24.336  25.037   5.331 -0.2412 -0.0493  0.1067
    1DIPC   C4A 9320  24.240  25.454   5.189 -0.0097 -0.0810  0.2466
    1DIPC   C1B 9321  23.906  24.361   5.457 -0.0813 -0.1167 -0.0307
    1DIPC   D2B 9322  24.250  24.388   5.289 -0.1905  0.0765 -0.0902
    1DIPC   D3B 9323  24.697  24.701   5.201  0.2012  0.0878 -0.1560
    1DIPC   C4B 9324  25.072  24.339   5.249  0.2090 -0.2329  0.0922
    1DIPC   NC3 9325  17.381   3.240   7.983  0.1936  0.2089  0.1979
    1DIPC   PO4 9326  17.074   3.470   7.813  0.1521  0.2049  0.0695
    1DIPC   GL1 9327  17.315   3.297   7.415 -0.1124 -0.1588  0.0200
    1DIPC   GL2 9328  17.266   3.470   7.138  0.0200 -0.1355 -0.2255
    1DIPC   C1A 9329  17.774   3.261   7.198 -0.2418  0.0543 -0.2020
    1DIPC   D2A 9330  18.019   3.411   6.827 -0.2803  0.1304  0.0550
    1DIPC   D3A 9331  17.582   3.198   6.684  0.1856  0.0008 -0.4080
    1DIPC   C4A 9332  17.365   2.977   7.009 -0.2478 -0.0919 -0.1291
    1DIPC   C1B 9333  17.075   3.241   6.738 -0.0070  0.1656  0.0707
    1DIPC   D2B 9334  16.691   3.257   6.601  0.1584 -0.4771  0.2916
    1DIPC   D3B 9335  16.391   3.246   6.480 -0.0869  0.2040 -0.0217
    1DIPC   C4B 9336  16.343   3.377   6.064  0.0136  0.1978 -0.3463
    1DIPC   NC3 9337   6.353  11.322   7.588 -0.3291 -0.0171  0.1171
    1DIPC   PO4 9338   6.637  11.114   7.304 -0.1923 -0.3458  0.2763
    1DIPC   GL1 9339   6.846  10.949   6.981 -0.1232 -0.1420 -0.1230
    1DIPC   GL2 9340   7.082  11.054   6.955  0.0104 -0.1348 -0.1518
    1DIPC   C1A 9341   6.646  10.707   6.626 -0.4899  0.4909  0.1235
    1DIPC   D2A 9342   6.338  10.584   6.329  0.0500 -0.4065  0.0895
    1DIPC   D3A 9343   6.669  10.342   6.144  0.1025 -0.3778  0.0261
    1DIPC   C4A 9344   6.695   9.928   6.355 -0.1896 -0.0486  0.0948
    1DIPC   C1B 9345   7.297  10.868   6.584 -0.0440 -0.1135  0.0685
    1DIPC   D2B 9346   7.423  10.627   6.292 -0.2411  0.1009  0.0347
    1DIPC   D3B 9347   7.161  10.354   6.342  0.0350  0.4240  0.3282
    1DIPC   C4B 9348   7.110   9.963   6.649  0.4244 -0.2285  0.0499
    1DIPC   NC3 9349  10.417  28.766   6.753  0.0150  0.0125 -0.0086
    1DIPC   PO4 9350  10.547  28.369   6.747 -0.0220 -0.3353  0.3049
    1DIPC   GL1 9351  10.819  28.645   6.475  0.0873  0.3920  0.1251
    1DIPC   GL2 9352  10.968  28.889   6.527 -0.2288 -0.2013  0.0374
    1DIPC   C1A 9353  10.909  28.621   5.982  0.1321  0.2231  0.2038
    1DIPC   D2A 9354  11.071  28.772   5.552 -0.1304  0.1675 -0.0610
    1DIPC   D3A 9355  10.650  28.694   5.519 -0.0151  0.0136  0.1366
    1DIPC   C4A 9356  10.479  28.916   5.817 -0.3100 -0.1353 -0.5153
    1DIPC   C1B 9357  11.261  29.239   6.380  0.0301  0.0544  0.0414
    1DIPC   D2B 9358  11.314  29.385   6.009 -0.1011  0.0085  0.2865
    1DIPC   D3B 9359  11.486  29.686   5.710  0.0383 -0.3328  0.2714
    1DIPC   C4B 9360  11.447  29.712   5.209  0.0891 -0.0722 -0.0703
    1DIPC   NC3 9361   3.636  19.924   4.783  0.1536  0.0144  0.0590
    1DIPC   PO4 9362   3.959  19.896   4.988  0.2641  0.2475 -0.0884
    1DIPC   GL1 9363   4.216  19.939   4.677 -0.0263  0.1335  0.0438
    1DIPC   GL2 9364   3.979  19.986   4.360 -0.1548 -0.0842  0.2942
    1DIPC   C1A 9365   4.653  19.997   4.393  0.0781  0.1170 -0.6877
    1DIPC   D2A 9366   5.080  19.762   4.315  0.1615  0.2983 -0.1332
    1DIPC   D3A 9367   5.311  19.657   3.913 -0.3250  0.0902  0.1895
    1DIPC   C4A 9368   5.298  19.412   3.474  0.0690  0.1743 -0.1072
    1DIPC   C1B 9369   4.085  19.996   3.932  0.1377 -0.3043  0.1973
    1DIPC   D2B 9370   4.188  19.934   3.527  0.0370 -0.1729  0.1633
    1DIPC   D3B 9371   4.327  20.260   3.567 -0.1194  0.3354 -0.0270
    1DIPC   C4B 9372   4.421  20.636   3.218 -0.1221  0.0366 -0.1041
    1DIPC   NC3 9373  11.768   5.420   7.406  0.1099  0.0715  0.0202
    1DIPC   PO4 9374  11.267   5.438   7.462 -0.0889 -0.0848 -0.4449
    1DIPC   GL1 9375  11.236   5.338   7.099 -0.1776  0.2209 -0.1517
    1DIPC   GL2 9376  11.162   5.571   6.852 -0.1150  0.0711 -0.1622
    1DIPC   C1A 9377  11.344   5.072   6.801 -0.1269  0.1857  0.3931
    1DIPC   D2A 9378  11.662   4.721   6.717  0.0550 -0.0006 -0.0532
    1DIPC   D3A 9379  11.706   4.602   6.224  0.0998  0.1742 -0.0988
    1DIPC   C4A 9380  11.666   4.428   5.856  0.0063 -0.0978 -0.1026
    1DIPC   C1B 9381  11.383   5.822   6.577  0.0335  0.1918 -0.1757
    1DIPC   D2B 9382  11.317   6.196   6.392  0.3647 -0.1694 -0.1085
    1DIPC   D3B 9383  11.064   5.968   6.150 -0.0930  0.0249  0.1639
    1DIPC   C4B 9384  10.682   6.020   5.927  0.0417  0.0646  0.1837
    1DIPC   NC3 9385   6.740   6.725   7.431  0.2266 -0.2907 -0.0958
    1DIPC   PO4 9386   6.308   6.616   7.434 -0.0671  0.2222 -0.0571
    1DIPC   GL1 9387   6.148   6.598   6.972 -0.1355 -0.2204 -0.0386
    1DIPC   GL2 9388   5.903   6.717   6.887 -0.1568  0.2188  0.1712
    1DIPC   C1A 9389   6.486   6.544   6.578 -0.0952 -0.0016  0.6066
    1DIPC   D2A 9390   6.724   6.706   6.218 -0.1775  0.0110 -0.0065
    1DIPC   D3A 9391   6.849   6.665   5.852  0.2322  0.2602  0.0588
    1DIPC   C4A 9392   6.841   6.511   5.497 -0.0340  0.0131 -0.0785
    1DIPC   C1B 9393   5.804   6.797   6.464  0.1065  0.3025 -0.1385
    1DIPC   D2B 9394   5.819   6.705   6.053 -0.2631 -0.1189  0.0050
    1DIPC   D3B 9395   6.026   6.954   5.756  0.3525  0.3634 -0.0793
    1DIPC   C4B 9396   6.470   6.955   5.734 -0.0295  0.1543  0.2986
    1DIPC   NC3 9397  28.625  29.238   6.586  0.1759 -0.1217  0.2681
    1DIPC   PO4 9398  28.232  29.011   6.663  0.1677 -0.0716 -0.4789
    1DIPC   GL1 9399  28.343  29.042   6.161 -0.4226 -0.3488  0.3354
    1DIPC   GL2 9400  28.662  28.850   6.227  0.2359 -0.0617 -0.0957
    1DIPC   C1A 9401  28.314  29.024   5.759  0.3301 -0.1351 -0.0347
    1DIPC   D2A 9402  28.358  29.067   5.239  0.1236  0.4959  0.4016
    1DIPC   D3A 9403  28.423  28.726   5.150  0.1618 -0.1626 -0.0811
    1DIPC   C4A 9404  28.192  28.407   5.425  0.2971 -0.3497 -0.1771
    1DIPC   C1B 9405  28.768  29.154   5.827 -0.1518  0.5504 -0.1194
    1DIPC   D2B 9406  28.806  29.117   5.425 -0.2680  0.1137 -0.1190
    1DIPC   D3B 9407  28.988  28.713   5.267  0.0719 -0.0276 -0.0313
    1DIPC   C4B 9408  29.169  28.739   4.896  0.0214 -0.0075  0.0087
    1DIPC   NC3 9409  14.272   5.105   7.725 -0.5056 -0.0636  0.0049
    1DIPC   PO4 9410  14.154   5.073   7.255  0.4517 -0.0343  0.4680
    1DIPC   GL1 9411  13.963   5.180   6.797  0.0701 -0.3134  0.0245
    1DIPC   GL2 9412  13.910   5.469   6.866 -0.2032  0.1379  0.1099
    1DIPC   C1A 9413  13.954   5.001   6.332  0.0642 -0.1043  0.1393
    1DIPC   D2A 9414  13.884   4.918   6.011 -0.2011  0.0181  0.1809
    1DIPC   D3A 9415  14.179   4.992   5.643 -0.0954  0.1005  0.1796
    1DIPC   C4A 9416  14.451   4.661   5.678  0.1599  0.1109 -0.1363
    1DIPC   C1B 9417  13.980   5.589   6.387 -0.1049  0.0650 -0.4778
    1DIPC   D2B 9418  14.001   5.804   5.936 -0.2188  0.0133 -0.0350
    1DIPC   D3B 9419  13.979   6.271   5.643 -0.0132  0.0474  0.3619
    1DIPC   C4B 9420  14.199   6.597   5.909  0.1349 -0.1153  0.0164
    1DIPC   NC3 9421  15.244  28.495   6.402  0.0280 -0.0019  0.1177
    1DIPC   PO4 9422  15.122  28.081   6.353 -0.1008  0.1757  0.0782
    1DIPC   GL1 9423  14.970  27.987   5.999 -0.1686  0.1930 -0.2232
    1DIPC   GL2 9424  14.911  27.604   5.835  0.1688 -0.3000 -0.0208
    1DIPC   C1A 9425  14.991  28.071   5.551  0.2898 -0.1485  0.0134
    1DIPC   D2A 9426  14.777  28.152   5.181  0.2057 -0.0405 -0.4059
    1DIPC   D3A 9427  14.431  28.202   5.362  0.4159  0.0283  0.1288
    1DIPC   C4A 9428  14.173  28.084   5.107 -0.2364  0.5533  0.1794
    1DIPC   C1B 9429  15.003  27.537   5.491  0.0728 -0.4603 -0.2092
    1DIPC   D2B 9430  14.906  27.088   5.414  0.2036 -0.0361  0.0104
    1DIPC   D3B 9431  14.554  27.153   5.534 -0.1102  0.3860 -0.0930
    1DIPC   C4B 9432  14.446  27.428   5.801 -0.0542  0.1658  0.3653
    1DIPC   NC3 9433   3.106  26.541   6.594 -0.0809 -0.0066  0.0971
    1DIPC   PO4 9434   3.264  26.886   6.474  0.1609 -0.1871  0.0767
    1DIPC   GL1 9435   3.426  27.053   6.053  0.1473  0.0661 -0.0360
    1DIPC   GL2 9436   3.529  26.824   5.818 -0.0377  0.1651  0.0303
    1DIPC   C1A 9437   3.437  27.310   5.716  0.0240 -0.3007  0.2792
    1DIPC   D2A 9438   3.304  27.257   5.218  0.3457 -0.0053  0.4255
    1DIPC   D3A 9439   2.975  27.474   5.228 -0.1304  0.3784  0.0789
    1DIPC   C4A 9440   2.763  27.820   5.409 -0.1233 -0.5258 -0.3403
    1DIPC   C1B 9441   3.389  26.808   5.473 -0.2316  0.0739  0.1357
    1DIPC   D2B 9442   3.557  26.787   5.104  0.0860 -0.2467  0.1428
    1DIPC   D3B 9443   3.850  27.066   4.911 -0.1215  0.2131 -0.0144
    1DIPC   C4B 9444   4.273  27.196   4.721 -0.0772  0.2679 -0.0800
    1DIPC   NC3 9445   5.827  19.780   5.740  0.4336 -0.2600 -0.0954
    1DIPC   PO4 9446   5.760  20.219   5.551 -0.0285  0.0959 -0.1260
    1DIPC   GL1 9447   6.019  20.412   5.243  0.0969  0.0588  0.3264
    1DIPC   GL2 9448   6.120  20.653   5.213  0.1939  0.1717 -0.0323
    1DIPC   C1A 9449   6.308  20.320   4.852  0.1354  0.1295 -0.1302
    1DIPC   D2A 9450   6.388  20.351   4.391  0.0547 -0.1924 -0.0216
    1DIPC   D3A 9451   6.036  20.755   4.349  0.0633  0.0523  0.1659
    1DIPC   C4A 9452   6.233  21.097   4.183  0.0674  0.0815  0.2419
    1DIPC   C1B 9453   5.882  20.716   4.902 -0.1676 -0.2849  0.2175
    1DIPC   D2B 9454   5.547  20.575   4.690  0.1281 -0.0166 -0.2745
    1DIPC   D3B 9455   5.696  20.297   4.476  0.0902 -0.3279  0.1691
    1DIPC   C4B 9456   5.889  20.265   4.103  0.2727 -0.0057  0.1943
    1DIPC   NC3 9457  15.689  24.310   6.547  0.1387 -0.0408  0.0165
    1DIPC   PO4 9458  15.535  23.911   6.364 -0.4612  0.2411 -0.0993
    1DIPC   GL1 9459  15.502  23.764   5.974 -0.0797 -0.2233  0.2311
    1DIPC   GL2 9460  15.773  23.834   5.874 -0.1452 -0.2278 -0.1348
    1DIPC   C1A 9461  15.516  23.423   5.666  0.0378 -0.0302 -0.0860
    1DIPC   D2A 9462  15.749  23.261   5.324  0.3430  0.2760 -0.0515
    1DIPC   D3A 9463  15.593  23.424   4.858 -0.0124  0.2051 -0.1197
    1DIPC   C4A 9464  15.238  23.276   4.675  0.0868 -0.0560  0.2369
    1DIPC   C1B 9465  15.541  24.103   5.578 -0.4238  0.5679  0.0152
    1DIPC   D2B 9466  15.528  24.311   5.204 -0.3701 -0.3302 -0.0133
    1DIPC   D3B 9467  15.889  24.101   5.169 -0.0774 -0.0585  0.1642
    1DIPC   C4B 9468  15.702  23.724   5.274  0.0898  0.1665  0.0771
    1DIPC   NC3 9469  15.640  29.223   7.292 -0.1468 -0.2245  0.0626
    1DIPC   PO4 9470  15.655  29.350   6.948  0.1225  0.3251  0.1649
    1DIPC   GL1 9471  15.776  29.364   6.460  0.0170 -0.0912 -0.1281
    1DIPC   GL2 9472  15.521  29.402   6.219  0.2929  0.2807  0.0331
    1DIPC   C1A 9473  16.074  29.354   6.065  0.1483 -0.2453 -0.2383
    1DIPC   D2A 9474  16.275  29.214   5.623 -0.0303 -0.0111 -0.3148
    1DIPC   D3A 9475  16.494  29.540   5.698  0.0085  0.0935 -0.0803
    1DIPC   C4A 9476  16.902  29.412   5.742  0.0204  0.0813 -0.1501
    1DIPC   C1B 9477  15.342  29.125   5.977 -0.2869 -0.1117  0.0904
    1DIPC   D2B 9478  15.390  28.938   5.603 -0.1363  0.1734  0.2543
    1DIPC   D3B 9479  15.662  29.235   5.528  0.0866 -0.0106 -0.0869
    1DIPC   C4B 9480  15.916  29.478   5.247  0.2465 -0.0016  0.1041
    1DIPC   NC3 9481  11.769  24.316   6.870  0.1263 -0.2380  0.0961
    1DIPC   PO4 9482  11.877  24.420   6.438  0.2119 -0.0632 -0.0201
    1DIPC   GL1 9483  11.582  24.545   6.079 -0.2221 -0.1588  0.2305
    1DIPC   GL2 9484  11.534  24.828   5.845  0.1881  0.1923  0.0264
    1DIPC   C1A 9485  11.558  24.350   5.618  0.1567 -0.0794  0.4454
    1DIPC   D2A 9486  11.626  24.547   5.308 -0.2002  0.1917  0.3377
    1DIPC   D3A 9487  11.979  24.493   4.974  0.0736  0.1304  0.1355
    1DIPC   C4A 9488  12.113  24.066   4.915 -0.0571 -0.1187  0.3877
    1DIPC   C1B 9489  11.714  25.001   5.603 -0.1400  0.0328 -0.0202
    1DIPC   D2B 9490  11.863  25.260   5.294 -0.2270 -0.2690  0.0519
    1DIPC   D3B 9491  12.315  25.348   5.317 -0.1408 -0.0554  0.0163
    1DIPC   C4B 9492  12.651  24.973   5.066  0.3408  0.0808  0.3149
    1DIPC   NC3 9493  21.930  27.115   6.541  0.1035  0.1279 -0.2719
    1DIPC   PO4 9494  22.074  27.575   6.744 -0.2209  0.0893  0.2773
    1DIPC   GL1 9495  22.049  27.557   6.242  0.1535 -0.0390 -0.1133
    1DIPC   GL2 9496  22.042  27.756   6.018 -0.1394 -0.0963  0.1811
    1DIPC   C1A 9497  22.439  27.450   6.060 -0.1322  0.0742 -0.0764
    1DIPC   D2A 9498  22.701  27.037   6.152  0.0815  0.1551 -0.2556
    1DIPC   D3A 9499  22.572  27.204   5.645 -0.1339  0.4698 -0.0708
    1DIPC   C4A 9500  22.593  27.138   5.237 -0.4639 -0.1397 -0.1462
    1DIPC   C1B 9501  21.980  27.863   5.613 -0.0205  0.2303  0.1263
    1DIPC   D2B 9502  21.830  27.901   5.161 -0.0683  0.1242 -0.0222
    1DIPC   D3B 9503  21.829  28.361   5.154 -0.5659 -0.2133  0.0249
    1DIPC   C4B 9504  22.212  28.557   4.856  0.0545  0.1767  0.1614
    1DIPC   NC3 9505   4.888   8.707   7.359 -0.2460 -0.0319  0.3555
    1DIPC   PO4 9506   4.819   8.934   6.987  0.0874 -0.1279  0.0657
    1DIPC   GL1 9507   5.155   8.988   6.772 -0.0780 -0.0127 -0.0065
    1DIPC   GL2 9508   5.359   9.177   6.630 -0.0327  0.0901 -0.1495
    1DIPC   C1A 9509   5.219   8.801   6.314  0.0283 -0.1328  0.0709
    1DIPC   D2A 9510   5.453   8.545   6.176 -0.2423  0.0283  0.3171
    1DIPC   D3A 9511   5.634   8.883   6.020 -0.0084  0.2030  0.1324
    1DIPC   C4A 9512   5.335   9.268   6.053 -0.0874 -0.1450 -0.1513
    1DIPC   C1B 9513   5.670   8.743   6.613 -0.0146 -0.2946 -0.3531
    1DIPC   D2B 9514   5.745   8.282   6.654 -0.1812 -0.1669  0.1469
    1DIPC   D3B 9515   6.102   8.021   6.666  0.2466  0.1035 -0.1506
    1DIPC   C4B 9516   6.277   8.043   6.296  0.0943 -0.0611 -0.1266
    1DIPC   NC3 9517  24.870   2.183   6.391 -0.3703  0.2318 -0.0056
    1DIPC   PO4 9518  24.883   2.597   6.322 -0.2145 -0.0989  0.0236
    1DIPC   GL1 9519  24.685   2.526   5.887  0.1712  0.0345  0.3397
    1DIPC   GL2 9520  24.398   2.695   5.725  0.1248 -0.0020 -0.1872
    1DIPC   C1A 9521  24.822   2.207   5.471  0.1761  0.0413  0.1384
    1DIPC   D2A 9522  24.611   1.752   5.434  0.1984  0.0913  0.0579
    1DIPC   D3A 9523  24.229   1.893   5.060  0.0718  0.0851 -0.0424
    1DIPC   C4A 9524  24.436   1.874   4.669 -0.0428  0.1741 -0.1064
    1DIPC   C1B 9525  24.542   2.749   5.281  0.1689  0.0240  0.0657
    1DIPC   D2B 9526  24.776   2.809   4.904 -0.0207 -0.0249 -0.0057
    1DIPC   D3B 9527  24.454   2.767   4.650  0.2165 -0.0268  0.0570
    1DIPC   C4B 9528  24.661   2.477   4.425  0.1497  0.1265 -0.0180
    1DIPC   NC3 9529   0.229   4.520   6.422  0.0549  0.2689  0.2411
    1DIPC   PO4 9530   0.440   4.214   6.329  0.3831 -0.0126 -0.0988
    1DIPC   GL1 9531   0.698   4.145   6.000 -0.1393  0.0157 -0.1924
    1DIPC   GL2 9532   0.692   3.771   5.941  0.3355 -0.1430 -0.2970
    1DIPC   C1A 9533   1.024   4.423   5.839 -0.0350  0.3620 -0.2390
    1DIPC   D2A 9534   1.264   4.577   5.618 -0.2000 -0.1047 -0.1048
    1DIPC   D3A 9535   1.130   4.857   5.292 -0.2792 -0.1143  0.0354
    1DIPC   C4A 9536   1.297   4.729   4.910 -0.1959  0.0360  0.2768
    1DIPC   C1B 9537   0.556   3.574   5.628 -0.0302  0.4142  0.0937
    1DIPC   D2B 9538   0.741   3.485   5.260  0.3828 -0.0315  0.2877
    1DIPC   D3B 9539   0.703   3.783   4.842  0.1594  0.0044  0.2770
    1DIPC   C4B 9540   1.116   4.021   4.739 -0.0604  0.0516  0.0730
    1DIPC   NC3 9541  26.779  29.813   6.908  0.0506  0.0720 -0.0943
    1DIPC   PO4 9542  26.669  29.991   6.387 -0.0495 -0.0152 -0.0134
    1DIPC   GL1 9543  26.492  30.013   5.951 -0.2273  0.0447 -0.1521
    1DIPC   GL2 9544  26.106  29.903   5.898  0.1252  0.1771 -0.1509
    1DIPC   C1A 9545  26.883  29.847   5.683 -0.0702 -0.2849  0.4938
    1DIPC   D2A 9546  27.139  29.820   5.227 -0.3157 -0.3422  0.1608
    1DIPC   D3A 9547  26.818  29.577   5.208 -0.0894 -0.0926  0.0692
    1DIPC   C4A 9548  26.432  29.595   4.947  0.1810  0.0357 -0.2403
    1DIPC   C1B 9549  25.975  29.999   5.552  0.4347 -0.0587 -0.2160
    1DIPC   D2B 9550  25.793  29.948   5.068  0.2128 -0.0592 -0.0632
    1DIPC   D3B 9551  25.957  29.567   5.228  0.2536 -0.1148 -0.0332
    1DIPC   C4B 9552  25.838  29.171   4.978 -0.0150 -0.4832  0.1068
    1DIPC   NC3 9553  23.305  28.326   6.307  0.0680 -0.1546  0.0348
    1DIPC   PO4 9554  22.999  28.486   6.459 -0.0464  0.0691 -0.1316
    1DIPC   GL1 9555  23.073  28.749   6.158 -0.0516  0.3597  0.3401
    1DIPC   GL2 9556  23.388  28.858   6.029 -0.3201  0.2020 -0.0970
    1DIPC   C1A 9557  22.952  28.865   5.726  0.0836  0.1721  0.1661
    1DIPC   D2A 9558  23.005  28.975   5.286 -0.0381  0.2084 -0.0802
    1DIPC   D3A 9559  23.381  29.125   4.984 -0.2738  0.1819 -0.1793
    1DIPC   C4A 9560  23.398  28.816   4.667 -0.0027  0.0232  0.1325
    1DIPC   C1B 9561  23.671  28.732   5.590  0.1332 -0.0101  0.1709
    1DIPC   D2B 9562  23.774  28.660   5.149 -0.1371  0.0171  0.0781
    1DIPC   D3B 9563  24.006  28.499   4.835  0.2463 -0.0944 -0.1024
    1DIPC   C4B 9564  23.849  28.549   4.448 -0.1423  0.0623  0.0927
    1DIPC   NC3 9565   5.900   6.385   7.578 -0.0537 -0.0725 -0.0205
    1DIPC   PO4 9566   5.955   6.192   7.168  0.1693 -0.2307 -0.0992
    1DIPC   GL1 9567   5.740   6.166   6.769  0.7123  0.1273 -0.2065
    1DIPC   GL2 9568   5.847   5.906   6.719  0.1405  0.0641  0.0724
    1DIPC   C1A 9569   5.520   6.282   6.350  0.1233 -0.0747 -0.0544
    1DIPC   D2A 9570   5.269   6.417   5.991  0.1583 -0.1297  0.3216
    1DIPC   D3A 9571   5.608   6.495   5.670  0.1735 -0.0405  0.1235
    1DIPC   C4A 9572   5.595   6.858   5.462  0.1473  0.1710 -0.1032
    1DIPC   C1B 9573   5.873   5.969   6.198 -0.2558  0.1876  0.2798
    1DIPC   D2B 9574   5.914   6.163   5.842  0.2277  0.0893 -0.1376
    1DIPC   D3B 9575   6.345   5.995   5.817 -0.1709  0.2541 -0.0993
    1DIPC   C4B 9576   6.421   5.862   6.221 -0.0891 -0.1606  0.4821
    1DIPC   NC3 9577   3.601   3.142   6.639 -0.0383  0.0597  0.2429
    1DIPC   PO4 9578   4.065   3.340   6.750  0.1488  0.0280  0.1718
    1DIPC   GL1 9579   3.901   3.444   6.373 -0.0170  0.1097  0.1963
    1DIPC   GL2 9580   3.868   3.735   6.245  0.0829  0.6082  0.0267
    1DIPC   C1A 9581   4.018   3.320   6.014  0.0478  0.1278  0.1419
    1DIPC   D2A 9582   4.004   3.040   5.669  0.0752 -0.1650  0.2040
    1DIPC   D3A 9583   4.134   3.114   5.140  0.3602 -0.0542 -0.1769
    1DIPC   C4A 9584   3.889   2.707   4.868  0.1541  0.0318 -0.3941
    1DIPC   C1B 9585   4.237   3.939   6.155 -0.1007  0.1718 -0.0924
    1DIPC   D2B 9586   4.414   3.716   5.812  0.2977 -0.1018 -0.1793
    1DIPC   D3B 9587   4.434   3.392   5.489  0.0848  0.2657 -0.2629
    1DIPC   C4B 9588   4.492   3.396   5.008  0.2029 -0.1019  0.0235
    1DIPC   NC3 9589   8.004  10.294   7.920  0.0117 -0.0060  0.1043
    1DIPC   PO4 9590   8.466  10.390   7.804 -0.0708 -0.3964  0.1793
    1DIPC   GL1 9591   8.228  10.470   7.436  0.0574 -0.2240 -0.3106
    1DIPC   GL2 9592   8.094  10.170   7.423 -0.2341 -0.1803  0.0170
    1DIPC   C1A 9593   8.146  10.726   7.115 -0.0336  0.1456  0.0332
    1DIPC   D2A 9594   8.193  10.954   6.671 -0.3066  0.1975  0.2151
    1DIPC   D3A 9595   8.515  11.258   6.569 -0.0686 -0.0223 -0.2433
    1DIPC   C4A 9596   8.297  11.534   6.371  0.0603 -0.0926 -0.2066
    1DIPC   C1B 9597   7.927  10.215   7.038  0.1478 -0.0324  0.0059
    1DIPC   D2B 9598   8.097  10.198   6.672  0.0770  0.0490  0.1180
    1DIPC   D3B 9599   8.286  10.507   6.348 -0.1192 -0.1166 -0.0186
    1DIPC   C4B 9600   8.226  11.026   6.223 -0.2844 -0.1121 -0.3773
    1DIPC   NC3 9601   6.449  24.614   5.877 -0.2557  0.4289 -0.2510
    1DIPC   PO4 9602   6.287  24.185   5.821  0.4414  0.2065  0.2062
    1DIPC   GL1 9603   6.477  24.353   5.370  0.0132  0.1563  0.0032
    1DIPC   GL2 9604   6.386  24.675   5.317 -0.0383  0.0348  0.2677
    1DIPC   C1A 9605   6.530  24.350   4.976  0.2422  0.3206  0.0698
    1DIPC   D2A 9606   6.708  24.678   4.704  0.4033 -0.0069  0.0297
    1DIPC   D3A 9607   6.485  24.808   4.300 -0.0946  0.0880  0.0535
    1DIPC   C4A 9608   6.564  25.122   3.944 -0.0639  0.3340 -0.1088
    1DIPC   C1B 9609   6.586  24.980   5.000  0.0275  0.1215 -0.0099
    1DIPC   D2B 9610   6.820  25.134   4.609 -0.0209 -0.2893 -0.1229
    1DIPC   D3B 9611   7.123  25.048   4.275 -0.3342 -0.1527  0.2358
    1DIPC   C4B 9612   7.364  24.610   4.353  0.0692  0.2695 -0.0716
    1DIPC   NC3 9613  16.969   6.140   7.103 -0.0535  0.1857 -0.1267
    1DIPC   PO4 9614  16.764   5.785   7.040 -0.0584  0.3885  0.2077
    1DIPC   GL1 9615  16.639   5.737   6.624 -0.1499  0.2195 -0.2593
    1DIPC   GL2 9616  16.607   5.415   6.439  0.1191 -0.1408  0.0830
    1DIPC   C1A 9617  16.645   5.778   6.135 -0.1067  0.0509  0.3780
    1DIPC   D2A 9618  16.663   5.880   5.692  0.0582 -0.1643 -0.2557
    1DIPC   D3A 9619  16.673   5.578   5.388  0.3059  0.1501 -0.0075
    1DIPC   C4A 9620  16.454   5.136   5.298 -0.2492 -0.0781 -0.2100
    1DIPC   C1B 9621  16.447   5.034   6.178 -0.2908  0.2387  0.1089
    1DIPC   D2B 9622  16.322   4.746   5.948 -0.1867  0.0762 -0.1984
    1DIPC   D3B 9623  16.488   4.690   5.603 -0.0460  0.3804 -0.0895
    1DIPC   C4B 9624  16.905   4.741   5.346 -0.0274 -0.1119  0.4468
    1DIPC   NC3 9625  10.593   8.006   7.470 -0.0358  0.1866 -0.0643
    1DIPC   PO4 9626  10.183   8.219   7.589  0.1606  0.0223  0.1237
    1DIPC   GL1 9627  10.020   8.295   7.124 -0.0823 -0.2482 -0.1787
    1DIPC   GL2 9628  10.253   8.516   6.972 -0.0217 -0.0809 -0.0885
    1DIPC   C1A 9629   9.907   8.037   6.804 -0.1261  0.0590 -0.1936
    1DIPC   D2A 9630   9.656   7.786   6.512  0.1885  0.2677  0.1393
    1DIPC   D3A 9631   9.626   7.863   6.071 -0.3212  0.0128  0.0396
    1DIPC   C4A 9632   9.198   7.821   5.859 -0.1235 -0.1775  0.2326
    1DIPC   C1B 9633  10.289   8.388   6.614 -0.0441 -0.2571  0.0947
    1DIPC   D2B 9634  10.014   8.175   6.328  0.0678  0.0326 -0.3226
    1DIPC   D3B 9635   9.793   8.378   5.977 -0.0561 -0.2302  0.3128
    1DIPC   C4B 9636   9.861   8.282   5.534  0.1651  0.1312  0.3754
    1DIPC   NC3 9637   5.858  25.066   6.071 -0.3118  0.0155 -0.1578
    1DIPC   PO4 9638   6.221  25.035   5.827  0.2105 -0.2901  0.1886
    1DIPC   GL1 9639   6.256  25.155   5.419 -0.0388  0.4058 -0.3151
    1DIPC   GL2 9640   5.972  24.978   5.196 -0.1987  0.0041  0.1503
    1DIPC   C1A 9641   6.366  25.402   5.080  0.2683  0.2444  0.2050
    1DIPC   D2A 9642   6.438  25.561   4.698 -0.0121  0.2817  0.0571
    1DIPC   D3A 9643   6.258  25.197   4.644 -0.2007  0.0992 -0.1837
    1DIPC   C4A 9644   6.188  24.776   4.752  0.1830 -0.0067  0.1012
    1DIPC   C1B 9645   5.908  24.593   5.071  0.1182 -0.2395  0.0681
    1DIPC   D2B 9646   5.686  24.183   5.114  0.0321  0.0846  0.3123
    1DIPC   D3B 9647   6.094  24.106   4.831  0.1666 -0.1351 -0.1910
    1DIPC   C4B 9648   6.257  24.354   4.528 -0.1156 -0.1235 -0.0298
    1DIPC   NC3 9649  27.695  20.534   5.990 -0.0204  0.1320 -0.1450
    1DIPC   PO4 9650  28.085  20.704   5.885  0.0025 -0.2849 -0.0509
    1DIPC   GL1 9651  27.798  20.709   5.497 -0.0516  0.0257  0.0071
    1DIPC   GL2 9652  27.840  20.949   5.250 -0.3150  0.1777 -0.4430
    1DIPC   C1A 9653  27.559  20.393   5.181  0.0615  0.0470 -0.0149
    1DIPC   D2A 9654  27.476  20.251   4.759  0.0155 -0.1380 -0.1817
    1DIPC   D3A 9655  27.201  20.573   4.800  0.0766  0.0794 -0.2383
    1DIPC   C4A 9656  27.137  20.953   4.531 -0.1332  0.0785  0.1022
    1DIPC   C1B 9657  27.674  20.762   4.836 -0.0687  0.2572  0.1918
    1DIPC   D2B 9658  27.603  20.602   4.463 -0.1193  0.1223  0.2594
    1DIPC   D3B 9659  27.779  20.955   4.201  0.3284 -0.1209  0.3383
    1DIPC   C4B 9660  28.115  21.080   4.270 -0.3126  0.0132 -0.0492
    1DIPC   NC3 9661  12.046  25.885   6.313 -0.2011  0.2198  0.1997
    1DIPC   PO4 9662  12.263  26.231   6.529 -0.4450  0.0079  0.1113
    1DIPC   GL1 9663  12.260  26.254   6.122  0.4261  0.0761 -0.1771
    1DIPC   GL2 9664  12.350  25.938   5.941  0.1563 -0.0250 -0.1283
    1DIPC   C1A 9665  12.502  26.366   5.821 -0.1674 -0.1518 -0.1087
    1DIPC   D2A 9666  12.740  26.248   5.448  0.2825 -0.0859  0.1373
    1DIPC   D3A 9667  13.073  26.231   5.149 -0.2961 -0.1077 -0.2229
    1DIPC   C4A 9668  13.081  26.378   4.692  0.1713  0.2025  0.0096
    1DIPC   C1B 9669  12.331  25.831   5.519  0.0435  0.1864  0.1127
    1DIPC   D2B 9670  12.148  25.728   5.057 -0.5288  0.0397 -0.0234
    1DIPC   D3B 9671  11.916  25.412   4.856  0.0490 -0.0115 -0.2198
    1DIPC   C4B 9672  11.894  24.942   4.925 -0.2099 -0.0415  0.1409
    1DIPC   NC3 9673  13.572  26.817   6.475  0.0164  0.1081 -0.1215
    1DIPC   PO4 9674  13.954  26.715   6.313 -0.1602 -0.1593  0.0845
    1DIPC   GL1 9675  14.125  27.065   6.036  0.2028 -0.1905  0.2396
    1DIPC   GL2 9676  14.100  26.835   5.722 -0.1058  0.2321  0.3087
    1DIPC   C1A 9677  13.858  27.340   5.807 -0.3977  0.2638 -0.1668
    1DIPC   D2A 9678  13.736  27.780   5.576 -0.1155 -0.1735 -0.3383
    1DIPC   D3A 9679  13.385  27.469   5.709 -0.3113  0.1695 -0.0297
    1DIPC   C4A 9680  13.043  27.397   5.318  0.2349 -0.4475 -0.3418
    1DIPC   C1B 9681  13.994  26.537   5.385 -0.1530  0.0539  0.1529
    1DIPC   D2B 9682  13.948  26.286   5.108  0.0552  0.2011  0.1451
    1DIPC   D3B 9683  13.576  26.480   4.907  0.0873  0.0079  0.0857
    1DIPC   C4B 9684  13.373  26.882   5.076 -0.2148  0.1104  0.0950
    1DIPC   NC3 9685  21.626  27.634   6.518  0.1419  0.2344 -0.1312
    1DIPC   PO4 9686  21.671  27.957   6.297 -0.1530  0.0777  0.1932
    1DIPC   GL1 9687  21.540  27.873   5.910 -0.2547  0.2067  0.2266
    1DIPC   GL2 9688  21.525  27.644   5.714  0.1836 -0.2325 -0.1547
    1DIPC   C1A 9689  21.395  28.013   5.404  0.0654  0.1525 -0.3467
    1DIPC   D2A 9690  21.299  28.146   4.955  0.1507 -0.1377  0.0402
    1DIPC   D3A 9691  21.274  28.423   4.631  0.1201 -0.3229 -0.4294
    1DIPC   C4A 9692  21.640  28.638   4.731 -0.0043  0.1451 -0.2514
    1DIPC   C1B 9693  21.460  27.558   5.249  0.0212  0.2096  0.0644
    1DIPC   D2B 9694  21.891  27.417   5.046  0.1943 -0.1128  0.0749
    1DIPC   D3B 9695  22.024  27.643   4.768  0.0351 -0.0199  0.1154
    1DIPC   C4B 9696  22.432  27.627   4.455  0.0511  0.1160  0.0139
    1DIPC   NC3 9697  20.310  21.817   6.688  0.0738  0.0702 -0.1060
    1DIPC   PO4 9698  20.617  21.992   6.666 -0.0650  0.2664 -0.0397
    1DIPC   GL1 9699  20.471  21.943   6.177 -0.0294 -0.1723 -0.1423
    1DIPC   GL2 9700  20.054  21.950   6.125  0.1679  0.4080  0.0803
    1DIPC   C1A 9701  20.615  22.068   5.734  0.0713  0.1151 -0.1271
    1DIPC   D2A 9702  20.790  22.415   5.516  0.3459 -0.2953  0.2864
    1DIPC   D3A 9703  21.351  22.580   5.654  0.0356  0.0362  0.2929
    1DIPC   C4A 9704  21.718  22.434   5.412  0.2614 -0.1415 -0.0726
    1DIPC   C1B 9705  20.242  21.651   5.850  0.1013  0.3622  0.1486
    1DIPC   D2B 9706  20.178  21.815   5.355 -0.3073  0.2353 -0.1218
    1DIPC   D3B 9707  19.838  22.069   5.209  0.2031  0.0622 -0.0165
    1DIPC   C4B 9708  19.776  22.062   4.697 -0.3720 -0.0231 -0.1705
    1DIPC   NC3 9709  26.224  22.689   6.805  0.0027 -0.2866  0.2278
    1DIPC   PO4 9710  26.211  22.294   6.530  0.1674 -0.3188 -0.0437
    1DIPC   GL1 9711  26.278  22.653   6.317 -0.1011  0.0048  0.0818
    1DIPC   GL2 9712  26.256  22.539   6.057  0.1505  0.2635  0.3612
    1DIPC   C1A 9713  26.462  23.035   6.002  0.0885  0.5386  0.0596
    1DIPC   D2A 9714  26.197  23.126   5.562  0.0564 -0.0357 -0.0522
    1DIPC   D3A 9715  26.621  23.045   5.533 -0.0353 -0.0245 -0.2212
    1DIPC   C4A 9716  26.921  23.141   5.811  0.2416 -0.0494  0.0269
    1DIPC   C1B 9717  26.386  22.620   5.632  0.3811 -0.1062 -0.1913
    1DIPC   D2B 9718  26.573  22.456   5.308  0.2730 -0.2400  0.0163
    1DIPC   D3B 9719  26.129  22.342   5.278  0.0681 -0.0964 -0.2319
    1DIPC   C4B 9720  26.045  22.417   4.836 -0.0567 -0.1363 -0.2147
    1DIPC   NC3 9721  26.409  15.316   5.234  0.0899  0.0232 -0.2619
    1DIPC   PO4 9722  26.154  15.718   5.111 -0.1648 -0.0528  0.0900
    1DIPC   GL1 9723  26.146  15.779   4.675  0.1925 -0.3415  0.0810
    1DIPC   GL2 9724  25.871  15.911   4.509 -0.0329 -0.0767 -0.1405
    1DIPC   C1A 9725  26.276  16.145   4.458  0.1243 -0.2337 -0.0618
    1DIPC   D2A 9726  26.431  16.443   4.294 -0.3021  0.0824 -0.0885
    1DIPC   D3A 9727  26.670  16.780   4.013 -0.0890  0.0629 -0.1622
    1DIPC   C4A 9728  26.956  16.845   3.630 -0.2519 -0.1166  0.0378
    1DIPC   C1B 9729  25.964  15.926   4.065  0.1758  0.2646  0.0719
    1DIPC   D2B 9730  26.175  15.715   3.773 -0.2934  0.2449  0.2222
    1DIPC   D3B 9731  26.299  16.148   3.701 -0.0881  0.2389 -0.0428
    1DIPC   C4B 9732  26.649  16.455   3.669 -0.1067 -0.0052 -0.1320
    1DIPC   NC3 9733  29.343   5.835   6.795  0.1474 -0.0475 -0.0996
    1DIPC   PO4 9734  29.284   5.900   6.376  0.0294 -0.0771 -0.0264
    1DIPC   GL1 9735  29.162   5.966   6.031  0.0038 -0.1930  0.0700
    1DIPC   GL2 9736  28.963   6.247   5.897 -0.0481 -0.1962  0.0753
    1DIPC   C1A 9737  28.927   5.841   5.696  0.0167  0.0149 -0.1426
    1DIPC   D2A 9738  28.786   5.977   5.283  0.1113  0.0266  0.1266
    1DIPC   D3A 9739  28.970   6.350   4.943 -0.2585  0.5226 -0.1971
    1DIPC   C4A 9740  29.073   6.617   5.139 -0.0040  0.0911  0.1155
    1DIPC   C1B 9741  28.780   6.507   5.540  0.1920  0.1714 -0.1129
    1DIPC   D2B 9742  28.571   6.454   5.197 -0.0202  0.0913  0.0705
    1DIPC   D3B 9743  28.564   6.525   4.741 -0.1410  0.0828  0.0431
    1DIPC   C4B 9744  28.366   6.921   4.629 -0.1568  0.0863 -0.0807
    1DIPC   NC3 9745   1.793   9.042   6.619 -0.2825 -0.1432 -0.0616
    1DIPC   PO4 9746   1.521   8.662   6.674 -0.3471 -0.1830  0.0517
    1DIPC   GL1 9747   1.616   8.716   6.238 -0.1600 -0.0652  0.3041
    1DIPC   GL2 9748   1.424   8.684   5.891  0.1978  0.0954  0.1252
    1DIPC   C1A 9749   1.954   8.617   5.976 -0.3225 -0.0203  0.1812
    1DIPC   D2A 9750   2.409   8.524   6.089 -0.0182 -0.3152  0.0774
    1DIPC   D3A 9751   2.707   8.546   5.736  0.0073 -0.0162 -0.1984
    1DIPC   C4A 9752   2.642   8.453   5.337 -0.0156  0.0925  0.1242
    1DIPC   C1B 9753   1.554   8.355   5.730  0.1012  0.0165  0.1565
    1DIPC   D2B 9754   1.899   8.137   5.575 -0.5984  0.0002  0.1102
    1DIPC   D3B 9755   2.223   8.295   5.460 -0.2143  0.2624 -0.1079
    1DIPC   C4B 9756   2.246   8.732   5.626  0.1813  0.1573 -0.1730
    1DIPC   NC3 9757   7.200   5.794   7.069 -0.0663 -0.0391 -0.2694
    1DIPC   PO4 9758   7.574   5.636   6.983 -0.0262 -0.0727  0.1217
    1DIPC   GL1 9759   7.325   5.526   6.648  0.3604  0.2827  0.0398
    1DIPC   GL2 9760   7.223   5.243   6.651  0.1905  0.0648  0.0317
    1DIPC   C1A 9761   7.106   5.419   6.199  0.3359  0.2327 -0.0446
    1DIPC   D2A 9762   6.943   5.192   5.723  0.1068  0.4288 -0.0648
    1DIPC   D3A 9763   6.724   5.014   5.454  0.1346 -0.0579  0.1730
    1DIPC   C4A 9764   6.959   4.738   5.223  0.1545 -0.1656  0.1084
    1DIPC   C1B 9765   6.887   5.657   6.547 -0.1649 -0.0048 -0.2252
    1DIPC   D2B 9766   6.821   6.154   6.549  0.3902 -0.3112  0.1860
    1DIPC   D3B 9767   6.665   6.239   6.175 -0.1524  0.4056  0.0845
    1DIPC   C4B 9768   6.791   6.175   5.810  0.1168 -0.0693 -0.1618
    1DIPC   NC3 9769  13.307  23.965   6.303  0.0570  0.4236 -0.1243
    1DIPC   PO4 9770  13.227  24.272   6.702 -0.1209  0.2194 -0.3685
    1DIPC   GL1 9771  13.211  24.419   6.336  0.2512 -0.0293  0.0211
    1DIPC   GL2 9772  13.451  24.415   6.096 -0.0976  0.0244 -0.2215
    1DIPC   C1A 9773  13.109  24.510   5.754 -0.0734  0.4506  0.2832
    1DIPC   D2A 9774  13.306  24.891   5.541  0.2366  0.1432  0.1889
    1DIPC   D3A 9775  13.457  25.301   5.519 -0.1154 -0.3166 -0.4449
    1DIPC   C4A 9776  13.349  25.458   5.911 -0.2158 -0.2298 -0.2661
    1DIPC   C1B 9777  13.635  24.532   5.733  0.2954  0.2779  0.4766
    1DIPC   D2B 9778  13.888  24.933   5.720  0.5169  0.0950 -0.1637
    1DIPC   D3B 9779  13.739  24.829   5.264  0.2290 -0.2301  0.1412
    1DIPC   C4B 9780  13.723  25.135   4.931  0.1554  0.2188  0.1908
    1DIPC   NC3 9781  22.847   7.192   6.926 -0.0213  0.3016  0.0948
    1DIPC   PO4 9782  22.898   7.584   6.741  0.4071 -0.2851  0.4308
    1DIPC   GL1 9783  22.906   7.280   6.412 -0.0094 -0.0489  0.0846
    1DIPC   GL2 9784  23.052   6.973   6.558 -0.0031 -0.1486 -0.3140
    1DIPC   C1A 9785  23.015   7.200   6.067  0.0572  0.0011 -0.2343
    1DIPC   D2A 9786  22.920   7.405   5.675 -0.4405 -0.2901 -0.0881
    1DIPC   D3A 9787  23.057   7.520   5.347 -0.2038  0.0792 -0.0445
    1DIPC   C4A 9788  22.913   7.774   5.047  0.2925  0.0544  0.1243
    1DIPC   C1B 9789  22.741   6.841   6.231 -0.0789 -0.1503 -0.2288
    1DIPC   D2B 9790  22.484   6.884   5.884 -0.2720 -0.0840  0.0466
    1DIPC   D3B 9791  22.465   7.120   5.666 -0.0514 -0.2454  0.0676
    1DIPC   C4B 9792  22.028   7.306   5.655  0.0000 -0.0143 -0.1536
    1DIPC   NC3 9793  14.759   0.499   7.744 -0.0295 -0.2357 -0.0571
    1DIPC   PO4 9794  15.032   0.244   7.376  0.2503  0.2486  0.1007
    1DIPC   GL1 9795  14.906   0.464   7.055  0.1106  0.0026 -0.1027
    1DIPC   GL2 9796  14.742   0.708   7.097 -0.1477 -0.0246  0.1140
    1DIPC   C1A 9797  14.837   0.255   6.617 -0.2849 -0.2014 -0.4165
    1DIPC   D2A 9798  14.990  -0.015   6.266 -0.1101 -0.2515  0.0859
    1DIPC   D3A 9799  14.647  -0.071   5.904  0.0569 -0.1564 -0.3080
    1DIPC   C4A 9800  14.577   0.018   5.510  0.1783 -0.2316 -0.0689
    1DIPC   C1B 9801  14.839   0.824   6.657  0.1512  0.0063  0.1970
    1DIPC   D2B 9802  14.865   0.885   6.217  0.1018 -0.0503  0.2013
    1DIPC   D3B 9803  14.774   1.136   5.863  0.0279  0.0296  0.1589
    1DIPC   C4B 9804  15.095   1.438   5.701 -0.2737 -0.2540 -0.1163
    1DIPC   NC3 9805  10.815   0.624   7.257 -0.1794  0.0541 -0.1027
    1DIPC   PO4 9806  10.574   0.416   6.991 -0.0318  0.1144 -0.3403
    1DIPC   GL1 9807  10.703   0.499   6.594  0.0591  0.1127 -0.0110
    1DIPC   GL2 9808  11.084   0.421   6.590  0.1331 -0.0106 -0.0686
    1DIPC   C1A 9809  10.741   0.375   6.128 -0.1651 -0.1541 -0.0581
    1DIPC   D2A 9810  11.122   0.376   5.765  0.0853 -0.0127 -0.0882
    1DIPC   D3A 9811  10.658   0.459   5.612 -0.2998  0.0755 -0.0759
    1DIPC   C4A 9812  10.664   0.967   5.539  0.1998 -0.0331 -0.5201
    1DIPC   C1B 9813  11.253   0.200   6.249 -0.2275  0.1533 -0.0963
    1DIPC   D2B 9814  11.586   0.069   6.094  0.0785  0.0603 -0.2649
    1DIPC   D3B 9815  11.567   0.505   5.816 -0.0507  0.0647 -0.0779
    1DIPC   C4B 9816  11.428   0.896   6.052 -0.1257 -0.1834  0.0583
    1DIPC   NC3 9817  21.411   3.079   6.642 -0.2532  0.3388  0.0120
    1DIPC   PO4 9818  21.803   3.050   6.301 -0.3579 -0.2195 -0.0689
    1DIPC   GL1 9819  21.724   3.142   5.855 -0.0339  0.0306 -0.0436
    1DIPC   GL2 9820  21.992   3.383   5.855 -0.1170 -0.1881  0.1258
    1DIPC   C1A 9821  21.587   3.082   5.475 -0.0380 -0.0436 -0.1133
    1DIPC   D2A 9822  21.322   2.835   5.113 -0.2482 -0.3991  0.4485
    1DIPC   D3A 9823  21.491   2.594   5.262 -0.0598  0.1232  0.2322
    1DIPC   C4A 9824  21.452   2.641   5.698 -0.0895  0.3126 -0.0683
    1DIPC   C1B 9825  22.136   3.588   5.484 -0.0285  0.0903  0.1776
    1DIPC   D2B 9826  22.547   3.539   5.220 -0.2540  0.1952  0.0687
    1DIPC   D3B 9827  22.310   3.861   4.879  0.1963 -0.1339  0.0045
    1DIPC   C4B 9828  22.635   4.025   4.631  0.1971 -0.2919 -0.0883
    1DIPC   NC3 9829  10.645  24.698   6.018  0.0430 -0.1804 -0.0422
    1DIPC   PO4 9830  10.589  24.305   5.864 -0.0239 -0.0368 -0.3807
    1DIPC   GL1 9831  10.577  24.317   5.505 -0.2656  0.3705 -0.1575
    1DIPC   GL2 9832  10.754  24.088   5.468  0.5265  0.0306 -0.1882
    1DIPC   C1A 9833  10.699  24.186   5.040 -0.1568 -0.0172 -0.0009
    1DIPC   D2A 9834  10.978  23.926   4.751 -0.3004  0.1853  0.0663
    1DIPC   D3A 9835  10.848  24.243   4.485 -0.1826  0.1698  0.1605
    1DIPC   C4A 9836  10.909  24.188   4.078 -0.1782  0.4284  0.0523
    1DIPC   C1B 9837  10.220  24.110   5.261 -0.2670 -0.3555  0.0020
    1DIPC   D2B 9838  10.103  23.862   4.835 -0.1234  0.0729 -0.2107
    1DIPC   D3B 9839  10.441  23.960   4.585 -0.1583  0.0479  0.0693
    1DIPC   C4B 9840  10.429  23.781   4.311  0.1172 -0.0249 -0.0739
    1DIPC   NC3 9841   4.211   5.008   6.772 -0.1666  0.0042 -0.2454
    1DIPC   PO4 9842   4.520   4.698   6.771  0.0554 -0.0408  0.1606
    1DIPC   GL1 9843   4.593   4.953   6.476 -0.2713  0.1622 -0.1454
    1DIPC   GL2 9844   4.333   4.857   6.266 -0.2703 -0.0204  0.2674
    1DIPC   C1A 9845   4.755   4.978   6.069  0.1870  0.1273  0.2271
    1DIPC   D2A 9846   4.625   4.703   5.760 -0.1785  0.2836 -0.0556
    1DIPC   D3A 9847   4.297   4.556   5.495  0.1197  0.1680 -0.0313
    1DIPC   C4A 9848   4.491   4.373   5.058  0.0265 -0.1238 -0.1437
    1DIPC   C1B 9849   4.103   4.565   5.966  0.1328 -0.2597 -0.0801
    1DIPC   D2B 9850   3.695   4.668   5.667 -0.1908 -0.1262  0.3038
    1DIPC   D3B 9851   3.407   4.625   5.332  0.1264  0.0112 -0.0148
    1DIPC   C4B 9852   3.520   4.666   4.938  0.0792 -0.3908  0.1105
    1DIPC   NC3 9853  10.735  23.846   5.896  0.1721 -0.1003  0.1556
    1DIPC   PO4 9854  10.519  23.471   6.025 -0.0954  0.3241 -0.0848
    1DIPC   GL1 9855  10.411  23.409   5.577  0.0023  0.1094  0.2557
    1DIPC   GL2 9856  10.521  23.644   5.341  0.1005  0.1012 -0.4053
    1DIPC   C1A 9857  10.084  23.461   5.194 -0.0648  0.4173 -0.0585
    1DIPC   D2A 9858  10.060  23.190   4.909 -0.0481 -0.1320 -0.0889
    1DIPC   D3A 9859  10.066  22.887   4.545 -0.0075  0.3201 -0.2887
    1DIPC   C4A 9860   9.707  22.569   4.498  0.0048  0.3304  0.2005
    1DIPC   C1B 9861  10.595  23.649   4.963  0.1815 -0.0751  0.0594
    1DIPC   D2B 9862  10.747  23.504   4.585 -0.0673  0.0912  0.0889
    1DIPC   D3B 9863  10.557  23.210   4.334 -0.2125  0.1410  0.0417
    1DIPC   C4B 9864  10.174  23.351   4.396 -0.1416 -0.1326  0.1142
    1DIPC   NC3 9865   2.687   6.978   7.229 -0.2191  0.0547 -0.1082
    1DIPC   PO4 9866   2.940   6.815   6.878  0.1000 -0.1193  0.2594
    1DIPC   GL1 9867   3.275   6.875   6.527  0.0671 -0.2648  0.1739
    1DIPC   GL2 9868   3.527   6.638   6.494 -0.4453 -0.0537  0.3103
    1DIPC   C1A 9869   3.434   7.000   6.159  0.1348  0.2886 -0.0156
    1DIPC   D2A 9870   3.849   7.190   6.109 -0.4021  0.0133 -0.0980
    1DIPC   D3A 9871   3.638   7.132   5.695 -0.0305 -0.2292  0.2052
    1DIPC   C4A 9872   3.385   6.887   5.676 -0.2558 -0.4061  0.2066
    1DIPC   C1B 9873   3.232   6.492   6.210  0.1884 -0.0152 -0.1709
    1DIPC   D2B 9874   3.015   6.279   5.935  0.1823 -0.0957  0.0126
    1DIPC   D3B 9875   2.915   5.941   6.166  0.1068 -0.2518 -0.1614
    1DIPC   C4B 9876   2.648   5.630   6.148 -0.0070  0.0080  0.0871
    1DIPC   NC3 9877   9.060   2.860   6.902 -0.0254  0.1561  0.4436
    1DIPC   PO4 9878   8.783   3.213   6.656  0.2293 -0.0775 -0.1105
    1DIPC   GL1 9879   8.716   2.982   6.248  0.2058  0.0658 -0.1392
    1DIPC   GL2 9880   8.407   2.842   6.283 -0.0040 -0.0650  0.1287
    1DIPC   C1A 9881   8.980   2.934   5.912 -0.0769 -0.1027  0.4337
    1DIPC   D2A 9882   9.181   2.788   5.646 -0.4507 -0.3165 -0.1191
    1DIPC   D3A 9883   9.140   3.197   5.339 -0.0109  0.4116  0.0928
    1DIPC   C4A 9884   9.328   3.295   4.928  0.0467 -0.3615  0.0565
    1DIPC   C1B 9885   8.477   2.590   5.981 -0.0488 -0.0554 -0.1139
    1DIPC   D2B 9886   8.452   2.257   5.697 -0.2015  0.1075 -0.1863
    1DIPC   D3B 9887   8.795   2.540   5.629  0.2439 -0.1095  0.1271
    1DIPC   C4B 9888   8.688   2.974   5.338 -0.0261 -0.0947  0.0232
    1DIPC   NC3 9889  22.872  10.582   6.035  0.0285 -0.1006  0.0843
    1DIPC   PO4 9890  23.141  10.248   5.818 -0.3287  0.0974  0.0183
    1DIPC   GL1 9891  23.073   9.911   5.492  0.2943  0.1219 -0.0081
    1DIPC   GL2 9892  23.319   9.816   5.629 -0.3059  0.1020 -0.2022
    1DIPC   C1A 9893  22.907   9.850   5.164  0.4069 -0.0267 -0.0437
    1DIPC   D2A 9894  22.725  10.123   4.861 -0.1919 -0.0384  0.2592
    1DIPC   D3A 9895  22.474   9.881   4.471 -0.4234  0.2745  0.3000
    1DIPC   C4A 9896  22.157   9.968   4.531 -0.0964 -0.2415  0.3450
    1DIPC   C1B 9897  23.378   9.669   5.210 -0.1318  0.2519 -0.0317
    1DIPC   D2B 9898  23.222   9.598   4.790  0.0435 -0.1111  0.0555
    1DIPC   D3B 9899  23.162   9.527   4.370  0.2261  0.1961 -0.0999
    1DIPC   C4B 9900  22.730   9.290   4.346 -0.1476  0.0489  0.1323
    1DIPC   NC3 9901  27.681   1.194   6.742 -0.0666 -0.2607  0.0195
    1DIPC   PO4 9902  27.993   0.977   6.604  0.1901  0.0163 -0.2076
    1DIPC   GL1 9903  28.279   1.031   6.194 -0.0729  0.1987 -0.0167
    1DIPC   GL2 9904  28.490   1.354   6.121 -0.0361  0.2917  0.3250
    1DIPC   C1A 9905  28.253   0.852   5.860 -0.0372  0.0786 -0.0156
    1DIPC   D2A 9906  28.274   0.408   5.657 -0.0517 -0.2363  0.2496
    1DIPC   D3A 9907  28.200   0.522   5.214  0.0623  0.1311 -0.0341
    1DIPC   C4A 9908  28.281   0.264   4.981 -0.0611 -0.3801  0.1119
    1DIPC   C1B 9909  28.542   1.198   5.693  0.1851  0.2601  0.1779
    1DIPC   D2B 9910  28.767   1.330   5.353  0.1122  0.1993  0.1458
    1DIPC   D3B 9911  28.664   1.698   5.661  0.0915 -0.2651  0.1162
    1DIPC   C4B 9912  28.971   2.050   5.589  0.1439  0.1731  0.1285
    1DIPC   NC3 9913  14.716  28.946   6.868  0.0851 -0.2143  0.2063
    1DIPC   PO4 9914  14.759  28.594   6.517  0.1698 -0.3819  0.0562
    1DIPC   GL1 9915  14.724  28.436   6.099  0.0730 -0.3510 -0.0026
    1DIPC   GL2 9916  15.012  28.460   5.983  0.5753 -0.0695 -0.0659
    1DIPC   C1A 9917  14.808  28.542   5.573 -0.1608  0.0196 -0.0169
    1DIPC   D2A 9918  15.200  28.480   5.388  0.0098  0.2179  0.0868
    1DIPC   D3A 9919  15.259  28.300   4.989  0.0017  0.0885 -0.3887
    1DIPC   C4A 9920  15.756  28.351   4.754 -0.1517 -0.1336  0.0691
    1DIPC   C1B 9921  14.875  28.930   5.888 -0.0705  0.3207  0.1846
    1DIPC   D2B 9922  14.976  29.344   5.730 -0.2054 -0.1256  0.0650
    1DIPC   D3B 9923  14.877  29.023   5.376  0.1473  0.0828  0.2139
    1DIPC   C4B 9924  14.659  29.108   5.041  0.1329 -0.3268  0.0137
    1DIPC   NC3 9925   5.314   7.973   7.103  0.0860  0.1448 -0.0205
    1DIPC   PO4 9926   5.237   8.415   7.153  0.1076  0.0315 -0.0624
    1DIPC   GL1 9927   5.200   8.323   6.689 -0.2159  0.1358  0.0068
    1DIPC   GL2 9928   4.938   8.488   6.526 -0.1766  0.0778 -0.1790
    1DIPC   C1A 9929   5.349   8.074   6.407  0.0185 -0.0377  0.1904
    1DIPC   D2A 9930   5.624   8.052   6.137 -0.1032  0.0426 -0.0139
    1DIPC   D3A 9931   5.815   8.152   5.727  0.2749  0.1106 -0.1170
    1DIPC   C4A 9932   5.437   8.244   5.466 -0.1962 -0.0483  0.1681
    1DIPC   C1B 9933   4.880   8.056   6.274 -0.1538  0.1050 -0.1006
    1DIPC   D2B 9934   5.090   7.638   6.214  0.0616 -0.0945 -0.0516
    1DIPC   D3B 9935   4.958   7.654   5.837 -0.4081 -0.0547  0.0467
    1DIPC   C4B 9936   4.611   7.451   5.657 -0.0386  0.0179 -0.1738
    1DIPC   NC3 9937  25.354   0.026   6.481 -0.1793  0.0943  0.0680
    1DIPC   PO4 9938  25.104  -0.294   6.508 -0.0818  0.0569 -0.1702
    1DIPC   GL1 9939  24.997  -0.096   6.127 -0.0480 -0.2311  0.1575
    1DIPC   GL2 9940  25.319   0.069   5.958 -0.1627 -0.2261  0.2686
    1DIPC   C1A 9941  24.880  -0.143   5.674  0.3111  0.0262  0.1492
    1DIPC   D2A 9942  24.599  -0.094   5.342  0.2184 -0.0526 -0.1459
    1DIPC   D3A 9943  24.414   0.186   5.658 -0.2279 -0.0237 -0.0795
    1DIPC   C4A 9944  24.739   0.268   5.911  0.0667 -0.0769  0.0982
    1DIPC   C1B 9945  25.450  -0.063   5.571 -0.3963 -0.2657 -0.1988
    1DIPC   D2B 9946  25.443   0.194   5.187 -0.2047 -0.0060 -0.2321
    1DIPC   D3B 9947  25.296   0.453   4.869 -0.0461 -0.0840  0.0669
    1DIPC   C4B 9948  25.252   0.580   4.430  0.2183 -0.1925  0.1087
    1DIPC   NC3 9949   1.848  27.890   7.249  0.1404 -0.1873  0.1904
    1DIPC   PO4 9950   1.661  28.106   6.910 -0.0053 -0.0603  0.0215
    1DIPC   GL1 9951   1.615  28.404   6.648  0.0640 -0.4448  0.1519
    1DIPC   GL2 9952   1.526  28.207   6.433  0.0907 -0.0644 -0.3248
    1DIPC   C1A 9953   1.672  28.614   6.273 -0.1832  0.3418  0.3481
    1DIPC   D2A 9954   1.466  28.870   6.058 -0.0879  0.0939 -0.4933
    1DIPC   D3A 9955   1.351  28.883   5.703  0.0092  0.0366  0.1392
    1DIPC   C4A 9956   0.955  29.073   5.718 -0.1788 -0.1248  0.1799
    1DIPC   C1B 9957   1.199  28.132   6.125  0.0977  0.2859 -0.1365
    1DIPC   D2B 9958   1.093  28.138   5.648 -0.0897 -0.0208 -0.2320
    1DIPC   D3B 9959   0.722  28.151   5.495  0.0899  0.0255 -0.1745
    1DIPC   C4B 9960   0.726  28.485   5.264 -0.1348 -0.0621 -0.1942
    1DIPC   NC3 9961   2.121   5.605   6.667 -0.1075 -0.0259 -0.4720
    1DIPC   PO4 9962   1.789   5.252   6.528 -0.1478 -0.0490 -0.2240
    1DIPC   GL1 9963   1.501   5.286   6.120  0.0891 -0.0624 -0.1983
    1DIPC   GL2 9964   1.433   5.619   6.123  0.0431  0.2794  0.3013
    1DIPC   C1A 9965   1.353   5.177   5.658  0.0880 -0.0309  0.1211
    1DIPC   D2A 9966   1.320   5.366   5.299  0.0308  0.0823  0.2939
    1DIPC   D3A 9967   1.748   5.406   5.443  0.0065  0.2660  0.2483
    1DIPC   C4A 9968   2.110   5.268   5.357  0.0551  0.1013 -0.1490
    1DIPC   C1B 9969   1.676   5.840   5.767 -0.2656 -0.0537 -0.0566
    1DIPC   D2B 9970   2.021   5.982   5.500  0.0206  0.0426 -0.0921
    1DIPC   D3B 9971   2.140   6.380   5.416 -0.2384 -0.2308 -0.1605
    1DIPC   C4B 9972   2.445   6.623   5.659  0.0124  0.0487  0.0006
    1DIPC   NC3 9973  19.720  25.839   6.951  0.2231  0.2569  0.2114
    1DIPC   PO4 9974  19.873  25.864   6.481  0.0815  0.0523 -0.3215
    1DIPC   GL1 9975  20.211  25.880   6.100  0.2966  0.0290  0.0084
    1DIPC   GL2 9976  20.184  25.654   5.874 -0.2187  0.2729 -0.1079
    1DIPC   C1A 9977  20.076  26.122   5.742  0.3146 -0.2193  0.2064
    1DIPC   D2A 9978  19.699  26.192   5.485 -0.0798  0.0755 -0.2815
    1DIPC   D3A 9979  19.553  25.942   5.168 -0.3026  0.1791  0.2510
    1DIPC   C4A 9980  19.319  26.108   4.679 -0.0413 -0.2678  0.0702
    1DIPC   C1B 9981  19.943  25.566   5.566 -0.3653 -0.0101 -0.1578
    1DIPC   D2B 9982  19.844  25.230   5.260  0.3385  0.0681  0.0638
    1DIPC   D3B 9983  19.531  25.096   5.062  0.0930  0.1147 -0.0513
    1DIPC   C4B 9984  19.061  25.245   5.141 -0.1138  0.2036  0.0421
    1DIPC   NC3 9985   4.160  24.568   6.055  0.0720  0.5291  0.1791
    1DIPC   PO4 9986   3.910  24.525   5.755  0.3619  0.0645 -0.0903
    1DIPC   GL1 9987   3.874  24.533   5.357 -0.0933 -0.0039  0.1286
    1DIPC   GL2 9988   3.721  24.803   5.349 -0.0314  0.0664 -0.3136
    1DIPC   C1A 9989   3.963  24.578   4.900 -0.2961  0.0363 -0.0001
    1DIPC   D2A 9990   3.984  24.836   4.555  0.2464 -0.1783 -0.1764
    1DIPC   D3A 9991   3.647  25.008   4.316  0.2945 -0.2287 -0.0108
    1DIPC   C4A 9992   3.579  24.776   3.960 -0.1353  0.1947 -0.0687
    1DIPC   C1B 9993   3.521  24.909   4.987  0.1214  0.0669  0.0187
    1DIPC   D2B 9994   3.536  24.722   4.689  0.0251  0.2026  0.1416
    1DIPC   D3B 9995   3.292  24.609   4.410 -0.0237  0.0390 -0.1963
    1DIPC   C4B 9996   3.414  24.218   4.249  0.2472  0.1027 -0.0562
    1DIPC   NC3 9997  26.409  25.811   6.757  0.2912  0.0005 -0.0479
    1DIPC   PO4 9998  25.985  25.785   6.581 -0.1924  0.0697  0.2828
    1DIPC   GL1 9999  25.866  25.734   6.139 -0.1361  0.2644 -0.2223
    1DIPC   GL210000  26.180  25.833   6.105  0.1569  0.1863 -0.0794
    1DIPC   C1A10001  25.850  25.786   5.705  0.3077 -0.2059 -0.1160
    1DIPC   D2A10002  25.647  25.826   5.194  0.1093 -0.1649 -0.0786
    1DIPC   D3A10003  25.190  25.841   5.027 -0.0311  0.1288  0.2362
    1DIPC   C4A10004  25.004  25.535   4.728 -0.3939 -0.2443  0.2185
    1DIPC   C1B10005  26.377  25.725   5.766 -0.3366  0.1807  0.0013
    1DIPC   D2B10006  26.243  25.699   5.358 -0.0899  0.0576 -0.2170
    1DIPC   D3B10007  26.043  26.101   5.077  0.3230  0.0873  0.0978
    1DIPC   C4B10008  26.183  26.048   4.625 -0.1360 -0.0523  0.0586
    1DIPC   NC310009   1.835  25.163   6.278 -0.0269 -0.1046 -0.0574
    1DIPC   PO410010   1.856  24.848   6.040 -0.1164  0.2470 -0.1740
    1DIPC   GL110011   1.982  25.002   5.675 -0.0844  0.2720  0.1407
    1DIPC   GL210012   1.715  25.066   5.528 -0.1645  0.3281 -0.2702
    1DIPC   C1A10013   2.194  24.963   5.253  0.1899  0.2302 -0.0820
    1DIPC   D2A10014   2.463  24.861   4.820  0.0364  0.1936  0.5624
    1DIPC   D3A10015   2.665  25.221   4.892 -0.0903 -0.2337  0.0448
    1DIPC   C4A10016   2.368  25.413   5.099  0.0551  0.0084 -0.1365
    1DIPC   C1B10017   1.401  25.354   5.319  0.0657 -0.0529  0.0696
    1DIPC   D2B10018   1.354  25.551   5.061  0.0653 -0.0236  0.0235
    1DIPC   D3B10019   0.968  25.306   5.138  0.1652 -0.0271  0.2072
    1DIPC   C4B10020   0.832  24.976   5.380  0.0110  0.0357 -0.3407
    1DIPC   NC310021  29.857  11.048   6.295 -0.0787 -0.1561  0.2864
    1DIPC   PO410022  29.932  11.229   5.910 -0.0643 -0.1057 -0.0272
    1DIPC   GL110023  29.763  11.082   5.513  0.1745 -0.1118  0.2492
    1DIPC   GL210024  29.375  10.945   5.328 -0.3404 -0.3106 -0.0531
    1DIPC   C1A10025  29.742  11.022   5.027  0.0129 -0.1186 -0.1207
    1DIPC   D2A10026  29.416  10.929   4.642 -0.1342 -0.0719 -0.1249
    1DIPC   D3A10027  29.290  10.696   4.924  0.3184 -0.0394 -0.0026
    1DIPC   C4A10028  29.652  10.486   5.241 -0.0841  0.2000 -0.0908
    1DIPC   C1B10029  29.242  11.224   5.035  0.1209  0.0439 -0.0132
    1DIPC   D2B10030  28.957  11.539   5.025  0.2586 -0.1725  0.0406
    1DIPC   D3B10031  28.983  11.291   4.638 -0.1634  0.0167 -0.0060
    1DIPC   C4B10032  29.213  11.405   4.250 -0.1437  0.2178 -0.0640
    1DIPC   NC310033  17.735   7.511   6.824  0.0844 -0.1079  0.1248
    1DIPC   PO410034  17.322   7.624   6.948 -0.2012  0.0663 -0.1930
    1DIPC   GL110035  17.384   7.701   6.477 -0.4675 -0.0311  0.0054
    1DIPC   GL210036  17.640   7.618   6.235  0.0857  0.0637  0.1226
    1DIPC   C1A10037  17.185   7.732   6.007 -0.1026  0.2608 -0.1764
    1DIPC   D2A10038  17.057   7.466   5.707  0.1527  0.0480  0.0265
    1DIPC   D3A10039  16.831   7.519   5.367  0.2498  0.0835 -0.1960
    1DIPC   C4A10040  16.880   7.504   4.972 -0.1095  0.0541 -0.1222
    1DIPC   C1B10041  17.597   7.684   5.783  0.0990  0.0078  0.1831
    1DIPC   D2B10042  17.463   7.499   5.467 -0.0793 -0.1450  0.2039
    1DIPC   D3B10043  17.192   7.891   5.506 -0.0591 -0.0561  0.2719
    1DIPC   C4B10044  16.819   7.932   5.735  0.0871  0.0327  0.1178
    1DIPC   NC310045   4.784   0.003   7.575 -0.1939 -0.0020 -0.1523
    1DIPC   PO410046   5.199   0.071   7.340  0.0757 -0.0710  0.1800
    1DIPC   GL110047   5.109   0.211   6.894 -0.2055  0.0290 -0.0043
    1DIPC   GL210048   4.791   0.466   6.849  0.0352  0.0742 -0.0961
    1DIPC   C1A10049   4.972   0.250   6.434  0.0365 -0.1235  0.0522
    1DIPC   D2A10050   4.673   0.488   6.246  0.1713 -0.2845 -0.2302
    1DIPC   D3A10051   4.430   0.575   6.481  0.0637  0.0588 -0.1897
    1DIPC   C4A10052   4.194   0.362   6.751  0.2192  0.1028 -0.3438
    1DIPC   C1B10053   4.576   0.056   6.729 -0.0444 -0.2248  0.0545
    1DIPC   D2B10054   4.156  -0.170   6.766 -0.1941  0.0345  0.1871
    1DIPC   D3B10055   4.147  -0.685   6.760  0.0196 -0.1926 -0.0317
    1DIPC   C4B10056   3.819  -0.952   6.833 -0.2812  0.0139 -0.1592
    1DIPC   NC310057   4.522  15.567   6.192 -0.0157 -0.1595 -0.1109
    1DIPC   PO410058   4.240  15.986   6.208  0.0106 -0.2276 -0.0410
    1DIPC   GL110059   4.521  16.125   5.935  0.0986  0.2603 -0.0472
    1DIPC   GL210060   4.386  16.121   5.604  0.0462  0.0564 -0.0654
    1DIPC   C1A10061   4.893  16.078   5.774  0.1055 -0.1376 -0.0565
    1DIPC   D2A10062   5.281  16.127   5.544 -0.2038 -0.4002  0.1269
    1DIPC   D3A10063   5.121  15.963   5.167 -0.1228 -0.1834 -0.1358
    1DIPC   C4A10064   5.108  16.240   4.813 -0.2804  0.0192 -0.0976
    1DIPC   C1B10065   4.687  15.820   5.419 -0.1110  0.0577  0.0364
    1DIPC   D2B10066   4.613  15.495   5.199 -0.2211 -0.0497  0.0222
    1DIPC   D3B10067   4.951  15.537   4.987  0.2850  0.0627 -0.0066
    1DIPC   C4B10068   5.170  15.163   4.956 -0.0299  0.1842 -0.0560
    1DIPC   NC310069  12.541  10.411   7.857  0.1581 -0.3216  0.0989
    1DIPC   PO410070  12.500   9.978   7.801  0.2070 -0.1847 -0.1049
    1DIPC   GL110071  12.214   9.996   7.422  0.0041  0.0505  0.2424
    1DIPC   GL210072  11.959   9.942   7.280 -0.1513 -0.1522  0.0168
    1DIPC   C1A10073  12.239   9.836   6.851 -0.1750 -0.0673 -0.0269
    1DIPC   D2A10074  12.295  10.000   6.346 -0.0507  0.1347  0.0076
    1DIPC   D3A10075  12.195  10.331   6.084  0.0909 -0.0108 -0.1741
    1DIPC   C4A10076  12.055  10.147   5.664 -0.2918  0.2601 -0.1117
    1DIPC   C1B10077  11.911  10.248   6.940 -0.1940  0.0041 -0.0861
    1DIPC   D2B10078  11.827  10.213   6.423  0.1057 -0.0349 -0.0507
    1DIPC   D3B10079  11.699  10.313   6.078 -0.1605 -0.1814  0.0574
    1DIPC   C4B10080  11.492  10.151   5.800 -0.0810  0.1030 -0.1850
    1DIPC   NC310081   1.312  18.627   5.699 -0.1971  0.1625  0.0733
    1DIPC   PO410082   0.962  18.362   5.499  0.1633 -0.0386 -0.2223
    1DIPC   GL110083   0.899  18.419   5.104  0.0953  0.0478 -0.0287
    1DIPC   GL210084   0.634  18.460   5.010  0.0483  0.1784  0.0690
    1DIPC   C1A10085   1.075  18.455   4.665 -0.0457 -0.1151  0.0381
    1DIPC   D2A10086   1.072  18.223   4.244  0.0421  0.1523  0.0592
    1DIPC   D3A10087   1.052  18.392   3.838 -0.1304 -0.4434 -0.0881
    1DIPC   C4A10088   0.657  18.259   3.639  0.0039  0.0987 -0.0230
    1DIPC   C1B10089   0.624  18.365   4.611 -0.0293  0.0968 -0.0434
    1DIPC   D2B10090   0.470  18.229   4.209  0.0246 -0.1378  0.1009
    1DIPC   D3B10091   0.731  18.603   4.213 -0.2170 -0.0387  0.1815
    1DIPC   C4B10092   0.926  18.937   3.877  0.0287  0.0343  0.1665
    1DIPC   NC310093  24.023  11.732   6.742  0.0696 -0.0102  0.0064
    1DIPC   PO410094  23.567  11.700   6.494 -0.0954 -0.0834  0.1919
    1DIPC   GL110095  23.598  11.768   5.981 -0.1136 -0.1208  0.1767
    1DIPC   GL210096  23.788  11.648   5.833  0.2267 -0.4872 -0.2825
    1DIPC   C1A10097  23.355  11.935   5.540 -0.2640 -0.1123  0.1296
    1DIPC   D2A10098  23.076  12.211   5.428 -0.2152  0.1525  0.0330
    1DIPC   D3A10099  23.015  11.943   4.999  0.0133 -0.0655 -0.0206
    1DIPC   C4A10100  23.302  12.061   4.591  0.0322  0.2311 -0.3461
    1DIPC   C1B10101  23.827  11.557   5.361 -0.2484  0.0428 -0.3888
    1DIPC   D2B10102  23.780  11.549   5.009 -0.0708 -0.1951 -0.0311
    1DIPC   D3B10103  24.296  11.458   5.015  0.2859 -0.2236  0.2012
    1DIPC   C4B10104  24.477  11.058   4.886  0.0664 -0.1763 -0.0759
    1DIPC   NC310105   0.708  16.588   5.250  0.2180  0.0699 -0.1211
    1DIPC   PO410106   0.522  16.253   5.246  0.0368 -0.1076  0.1375
    1DIPC   GL110107   0.736  16.066   4.865 -0.1015  0.2553 -0.1685
    1DIPC   GL210108   0.986  15.909   4.791  0.0121 -0.1730 -0.0555
    1DIPC   C1A10109   0.622  16.141   4.462  0.1823  0.0692 -0.1195
    1DIPC   D2A10110   0.604  16.242   4.016 -0.1495  0.2186 -0.1814
    1DIPC   D3A10111   0.560  15.788   3.998 -0.1020  0.3013 -0.1912
    1DIPC   C4A10112   0.750  15.505   3.717  0.0902 -0.1585 -0.2642
    1DIPC   C1B10113   1.014  15.808   4.308 -0.1841 -0.0168 -0.0945
    1DIPC   D2B10114   1.054  15.921   3.905 -0.0426  0.0103 -0.1252
    1DIPC   D3B10115   1.239  15.594   3.847  0.2053 -0.0929 -0.2661
    1DIPC   C4B10116   1.199  15.312   3.553 -0.0989 -0.1289 -0.0766
    1DIPC   NC310117   9.663  25.874   6.552 -0.1293  0.1362 -0.3219
    1DIPC   PO410118   9.297  26.076   6.362  0.0817  0.0854  0.1367
    1DIPC   GL110119   9.118  26.335   6.056  0.0961  0.0842  0.2336
    1DIPC   GL210120   9.411  26.426   5.902  0.2557 -0.2526  0.0902
    1DIPC   C1A10121   8.897  26.157   5.705 -0.0947 -0.2007  0.0327
    1DIPC   D2A10122   8.728  26.356   5.401  0.3701 -0.0429  0.1258
    1DIPC   D3A10123   8.754  26.687   5.736  0.1089  0.2525 -0.1467
    1DIPC   C4A10124   8.915  27.098   5.698  0.0577  0.1546 -0.0675
    1DIPC   C1B10125   9.241  26.773   5.597 -0.0863 -0.1186  0.3245
    1DIPC   D2B10126   9.090  26.741   5.266  0.1593 -0.0951  0.1242
    1DIPC   D3B10127   9.072  27.249   5.168  0.2244  0.0316  0.1209
    1DIPC   C4B10128   8.863  27.310   4.829  0.1239  0.1924 -0.0570
    1DIPC   NC310129  28.556  27.825   6.939  0.2183  0.3190 -0.1039
    1DIPC   PO410130  28.295  28.150   6.746 -0.1897  0.2434 -0.1440
    1DIPC   GL110131  28.428  27.837   6.451 -0.0486 -0.0782 -0.0495
    1DIPC   GL210132  28.513  27.534   6.531  0.0389 -0.0748  0.1690
    1DIPC   C1A10133  28.807  27.746   6.173  0.1349  0.2633 -0.0889
    1DIPC   D2A10134  28.986  27.758   5.830  0.0549  0.0386  0.2938
    1DIPC   D3A10135  28.781  27.722   5.393  0.4043 -0.0794 -0.1515
    1DIPC   C4A10136  28.534  28.038   5.180 -0.1137 -0.1497 -0.0573
    1DIPC   C1B10137  28.403  27.152   6.252  0.0932  0.0983  0.0517
    1DIPC   D2B10138  28.392  26.797   5.877  0.2464 -0.1718 -0.0211
    1DIPC   D3B10139  28.373  27.037   5.470 -0.1093 -0.0970 -0.2114
    1DIPC   C4B10140  28.456  26.896   5.113 -0.2606  0.0276 -0.3402
    1DIPC   NC310141   0.390  29.563   7.162 -0.1426  0.0226  0.0457
    1DIPC   PO410142   0.801  29.306   7.281 -0.2723 -0.0407  0.2274
    1DIPC   GL110143   0.851  29.195   6.854 -0.0945  0.2385 -0.1605
    1DIPC   GL210144   0.789  29.567   6.680 -0.1401  0.1532 -0.0605
    1DIPC   C1A10145   0.790  29.150   6.407 -0.0596  0.2009 -0.1796
    1DIPC   D2A10146   0.981  28.876   6.147 -0.2280 -0.0561 -0.0901
    1DIPC   D3A10147   0.951  28.582   5.759 -0.0666 -0.2901  0.1864
    1DIPC   C4A10148   1.193  28.615   5.370 -0.2416 -0.2050 -0.1281
    1DIPC   C1B10149   0.977  29.839   6.406 -0.3503  0.1058  0.3747
    1DIPC   D2B10150   1.075  29.923   6.068  0.0250  0.2310  0.0228
    1DIPC   D3B10151   0.880  30.289   6.038 -0.0222  0.1161 -0.0326
    1DIPC   C4B10152   0.760  30.426   5.646  0.2366 -0.1959  0.1002
    1DIPC   NC310153   0.459   0.290   7.049 -0.0680 -0.3289 -0.1381
    1DIPC   PO410154   0.567  -0.176   7.105 -0.0360 -0.1144 -0.2346
    1DIPC   GL110155   0.598  -0.093   6.602  0.3933 -0.1017 -0.2645
    1DIPC   GL210156   0.651   0.253   6.601 -0.0215 -0.1093  0.3264
    1DIPC   C1A10157   0.511  -0.266   6.043 -0.2078 -0.0096 -0.1031
    1DIPC   D2A10158   0.787  -0.212   5.652 -0.0962 -0.0312  0.0386
    1DIPC   D3A10159   1.129  -0.560   5.645  0.0493  0.0447 -0.0765
    1DIPC   C4A10160   1.357  -0.789   5.854 -0.1659 -0.0343  0.0879
    1DIPC   C1B10161   0.482   0.334   6.208  0.2377  0.1407  0.1751
    1DIPC   D2B10162   0.331   0.096   5.740 -0.1679  0.1025 -0.1210
    1DIPC   D3B10163   0.087   0.412   5.959 -0.0714  0.2060  0.1972
    1DIPC   C4B10164  -0.014   0.453   6.373 -0.0680  0.1882 -0.1663
    1DIPC   NC310165   5.677  28.508   7.358 -0.0033 -0.2308  0.1153
    1DIPC   PO410166   5.907  28.790   7.087  0.0409  0.2119  0.1724
    1DIPC   GL110167   5.841  28.855   6.647 -0.1714 -0.3365  0.0998
    1DIPC   GL210168   5.979  28.789   6.382 -0.0768 -0.4360  0.2926
    1DIPC   C1A10169   5.483  28.685   6.414  0.2729 -0.2524 -0.0131
    1DIPC   D2A10170   5.176  28.382   6.225 -0.0743  0.1471  0.0105
    1DIPC   D3A10171   4.981  28.426   5.818  0.4241  0.3019  0.0686
    1DIPC   C4A10172   4.681  28.229   5.715  0.0033  0.3914  0.1502
    1DIPC   C1B10173   5.898  29.236   6.238  0.0039  0.0160  0.0241
    1DIPC   D2B10174   6.090  29.651   6.293 -0.0429  0.3176 -0.2332
    1DIPC   D3B10175   6.255  29.617   5.954 -0.1636 -0.2710  0.1693
    1DIPC   C4B10176   6.360  30.061   5.944 -0.0325 -0.2370  0.1080
    1DIPC   NC310177  16.941   4.517   7.236 -0.2995 -0.0766 -0.1666
    1DIPC   PO410178  17.258   4.883   7.303 -0.2505 -0.1019 -0.1481
    1DIPC   GL110179  17.265   4.770   6.831  0.0176 -0.1683 -0.0236
    1DIPC   GL210180  17.305   4.440   6.944 -0.0300  0.1809 -0.0780
    1DIPC   C1A10181  17.321   4.791   6.332  0.1941  0.1845 -0.1551
    1DIPC   D2A10182  17.277   4.812   5.852 -0.1975 -0.2333 -0.0303
    1DIPC   D3A10183  17.692   4.912   5.674  0.2486 -0.0132  0.0164
    1DIPC   C4A10184  17.902   4.512   5.466 -0.0039 -0.1046 -0.3130
    1DIPC   C1B10185  17.220   4.308   6.558  0.4124 -0.1278  0.3275
    1DIPC   D2B10186  16.945   4.071   6.296  0.1187  0.1064 -0.2970
    1DIPC   D3B10187  17.057   3.891   5.891 -0.1332  0.0110 -0.1118
    1DIPC   C4B10188  16.932   3.466   5.668  0.2477  0.0509 -0.0649
    1DIPC   NC310189   2.696   1.870   6.594  0.2810  0.0065  0.0255
    1DIPC   PO410190   2.272   1.910   6.652  0.0806  0.3194 -0.1245
    1DIPC   GL110191   2.413   1.804   6.134 -0.1036 -0.1105 -0.2748
    1DIPC   GL210192   2.411   1.560   6.231  0.2406  0.1202  0.2023
    1DIPC   C1A10193   2.590   2.137   5.948 -0.2331 -0.1273  0.3752
    1DIPC   D2A10194   2.879   2.118   5.610  0.1066  0.3008  0.1906
    1DIPC   D3A10195   2.797   2.084   5.090 -0.0394 -0.0504 -0.0129
    1DIPC   C4A10196   2.662   2.440   4.915 -0.0325  0.1455 -0.1180
    1DIPC   C1B10197   2.218   1.318   6.000  0.2478  0.0451  0.1379
    1DIPC   D2B10198   2.310   1.229   5.635  0.1752 -0.0221  0.1111
    1DIPC   D3B10199   2.050   0.994   5.327 -0.0061 -0.1128 -0.0511
    1DIPC   C4B10200   2.243   1.056   4.987 -0.0959 -0.0849 -0.0688
    1DIPC   NC310201  23.946  11.090   5.990  0.1749 -0.2207 -0.1106
    1DIPC   PO410202  23.574  11.280   6.085  0.1636 -0.1624  0.1744
    1DIPC   GL110203  23.410  11.315   5.727 -0.0852  0.3441  0.0320
    1DIPC   GL210204  23.652  11.170   5.519  0.4164 -0.0657 -0.1380
    1DIPC   C1A10205  23.332  11.498   5.297 -0.2165 -0.0733  0.1642
    1DIPC   D2A10206  23.209  11.505   4.952  0.0524  0.1184  0.2855
    1DIPC   D3A10207  22.853  11.427   5.138  0.0310 -0.0634  0.0041
    1DIPC   C4A10208  22.565  11.710   5.017 -0.1917  0.1820 -0.0593
    1DIPC   C1B10209  23.486  10.735   5.389  0.0901 -0.1247  0.0736
    1DIPC   D2B10210  23.193  10.430   5.254 -0.1141  0.3921  0.0734
    1DIPC   D3B10211  23.058  10.785   5.558 -0.1842 -0.0640 -0.2323
    1DIPC   C4B10212  22.953  11.150   5.552  0.1409 -0.0056  0.1228
    1DIPC   NC310213  25.008  23.026   6.259 -0.2603 -0.0732  0.3659
    1DIPC   PO410214  24.963  22.600   6.149 -0.0160  0.0391 -0.3419
    1DIPC   GL110215  24.985  22.871   5.762 -0.0138  0.1870 -0.0652
    1DIPC   GL210216  25.183  22.599   5.600  0.2719  0.0988  0.0788
    1DIPC   C1A10217  24.706  23.095   5.537 -0.0460 -0.2696  0.1520
    1DIPC   D2A10218  24.363  22.947   5.203  0.2465 -0.2997  0.0827
    1DIPC   D3A10219  24.224  22.594   5.126 -0.3448 -0.0656  0.0185
    1DIPC   C4A10220  24.418  22.281   4.930  0.0482 -0.1560  0.1524
    1DIPC   C1B10221  24.912  22.679   5.249  0.1685  0.0293  0.1067
    1DIPC   D2B10222  24.820  22.698   4.857  0.1907  0.2034 -0.0362
    1DIPC   D3B10223  25.235  22.719   4.817 -0.2989 -0.1693  0.2816
    1DIPC   C4B10224  25.342  22.408   5.174  0.2271  0.1020  0.1239
    1DIPC   NC310225   4.424  23.857   5.525  0.2065  0.1040  0.0124
    1DIPC   PO410226   4.732  23.690   5.565 -0.1118  0.0966 -0.0211
    1DIPC   GL110227   4.794  23.669   5.169 -0.0056 -0.0247  0.0730
    1DIPC   GL210228   4.663  23.857   4.968 -0.1165 -0.0422 -0.2352
    1DIPC   C1A10229   4.949  23.320   4.887 -0.3558  0.0727 -0.1941
    1DIPC   D2A10230   5.341  23.180   4.780 -0.2264 -0.1862  0.3497
    1DIPC   D3A10231   5.254  23.457   4.432  0.0042 -0.3450 -0.2251
    1DIPC   C4A10232   5.268  23.285   3.978 -0.1033 -0.1506 -0.0590
    1DIPC   C1B10233   4.840  24.350   4.858 -0.0158 -0.0666 -0.0474
    1DIPC   D2B10234   4.914  24.599   4.483 -0.4593 -0.1570 -0.2375
    1DIPC   D3B10235   5.324  24.688   4.250 -0.2422 -0.1177  0.1612
    1DIPC   C4B10236   5.505  25.064   4.135 -0.4672 -0.3985 -0.1129
    1DIPC   NC310237  15.986   6.360   7.531 -0.0268  0.0824  0.0518
    1DIPC   PO410238  16.134   6.471   7.175 -0.0291  0.4515 -0.2042
    1DIPC   GL110239  16.455   6.523   6.930  0.0614  0.0331  0.2577
    1DIPC   GL210240  16.567   6.282   6.780  0.0983 -0.2789  0.0197
    1DIPC   C1A10241  16.700   6.940   6.816  0.1237 -0.3627 -0.1124
    1DIPC   D2A10242  16.786   7.020   6.338  0.0044 -0.2610 -0.1229
    1DIPC   D3A10243  16.501   6.709   6.329 -0.1948  0.2852 -0.1107
    1DIPC   C4A10244  16.173   6.592   6.557  0.0087  0.4766 -0.2822
    1DIPC   C1B10245  16.510   6.163   6.401 -0.2996 -0.0486 -0.0037
    1DIPC   D2B10246  16.644   6.320   5.936 -0.3624 -0.0884 -0.1495
    1DIPC   D3B10247  16.913   6.596   5.972 -0.0548 -0.0163 -0.2682
    1DIPC   C4B10248  17.337   6.423   5.817  0.1363  0.1887 -0.0969
    1DIPC   NC310249  12.143   9.019   7.296 -0.1927 -0.0401 -0.1687
    1DIPC   PO410250  11.910   8.624   7.332  0.1691  0.1340  0.1026
    1DIPC   GL110251  11.997   8.490   6.927  0.1413 -0.1512  0.1590
    1DIPC   GL210252  12.264   8.766   6.807  0.1610 -0.2099 -0.3145
    1DIPC   C1A10253  11.849   8.349   6.488  0.0760  0.0258  0.3691
    1DIPC   D2A10254  12.095   8.276   6.145  0.1964  0.1110 -0.0671
    1DIPC   D3A10255  12.416   8.389   6.415  0.0808  0.1726  0.1356
    1DIPC   C4A10256  12.405   8.254   6.856 -0.1626 -0.0754  0.3217
    1DIPC   C1B10257  12.242   8.832   6.348  0.2385 -0.0336 -0.0032
    1DIPC   D2B10258  12.095   8.907   5.879  0.0376 -0.1202  0.0865
    1DIPC   D3B10259  12.280   9.252   5.708 -0.0395  0.1869 -0.2043
    1DIPC   C4B10260  12.619   9.064   5.561 -0.2916 -0.1592  0.1983
    1DIPC   NC310261  23.965  16.797   5.872  0.4869  0.3100 -0.1470
    1DIPC   PO410262  23.444  16.859   6.047  0.0205  0.0536 -0.1520
    1DIPC   GL110263  23.260  16.726   5.643  0.2158  0.1624  0.0981
    1DIPC   GL210264  23.495  16.743   5.522  0.0410 -0.2269 -0.1787
    1DIPC   C1A10265  23.241  16.772   5.063  0.1929  0.1734 -0.3801
    1DIPC   D2A10266  23.246  16.926   4.633 -0.0631 -0.4049 -0.1247
    1DIPC   D3A10267  23.536  16.613   4.471 -0.2718 -0.3290  0.2126
    1DIPC   C4A10268  23.762  16.616   4.048 -0.2499  0.1873  0.1110
    1DIPC   C1B10269  23.598  17.104   5.218  0.1776 -0.2061 -0.2224
    1DIPC   D2B10270  23.694  16.984   4.862 -0.1175  0.3183 -0.0604
    1DIPC   D3B10271  23.663  17.164   4.459 -0.2506  0.0944 -0.0937
    1DIPC   C4B10272  23.612  17.056   4.108  0.0043 -0.0824 -0.3301
    1DIPC   NC310273   8.178  29.213   7.062 -0.4459  0.1467 -0.0077
    1DIPC   PO410274   7.836  28.904   6.982 -0.1519  0.0076 -0.0806
    1DIPC   GL110275   7.671  28.825   6.646 -0.1060 -0.1491 -0.0793
    1DIPC   GL210276   7.925  28.659   6.445 -0.0352 -0.1342  0.4409
    1DIPC   C1A10277   7.551  28.776   6.168 -0.1807 -0.1359 -0.0001
    1DIPC   D2A10278   7.838  28.816   5.876  0.3006  0.0065 -0.1216
    1DIPC   D3A10279   7.861  28.805   5.535 -0.0588  0.0752  0.0236
    1DIPC   C4A10280   8.172  29.017   5.242 -0.0758  0.1424  0.1399
    1DIPC   C1B10281   8.116  28.428   5.993  0.3943 -0.2481  0.5490
    1DIPC   D2B10282   8.316  28.619   5.603  0.0346 -0.0781  0.3396
    1DIPC   D3B10283   8.094  28.311   5.389 -0.4498 -0.0872  0.1926
    1DIPC   C4B10284   7.633  28.301   5.145  0.1691  0.2594  0.2620
    1DIPC   NC310285   1.856   0.079   6.676  0.1277  0.1205 -0.0850
    1DIPC   PO410286   1.414   0.204   6.797 -0.1749  0.0312 -0.1537
    1DIPC   GL110287   1.358   0.182   6.481 -0.4900 -0.1963  0.2239
    1DIPC   GL210288   1.626   0.421   6.323  0.1086 -0.1212  0.1040
    1DIPC   C1A10289   1.463   0.163   5.942  0.0018 -0.2332 -0.1922
    1DIPC   D2A10290   1.715   0.462   5.695 -0.0388 -0.0063 -0.2713
    1DIPC   D3A10291   1.842   0.083   5.485  0.1437 -0.1830  0.1625
    1DIPC   C4A10292   1.356  -0.150   5.536  0.0310 -0.2498 -0.1261
    1DIPC   C1B10293   1.917   0.056   6.009 -0.3655 -0.0861 -0.0665
    1DIPC   D2B10294   2.295   0.055   5.731  0.1783 -0.1572 -0.0543
    1DIPC   D3B10295   2.523  -0.225   5.418 -0.0854  0.0670  0.3128
    1DIPC   C4B10296   3.019  -0.164   5.444  0.2793  0.3055 -0.3025
    1DIPC   NC310297   7.107  28.290   7.076 -0.3112 -0.0620 -0.0699
    1DIPC   PO410298   7.122  27.895   6.884 -0.1864 -0.1177 -0.2168
    1DIPC   GL110299   7.096  27.933   6.379 -0.1068  0.1239  0.0026
    1DIPC   GL210300   7.392  27.879   6.288  0.0474 -0.2136  0.0139
    1DIPC   C1A10301   7.178  27.510   6.044  0.1772 -0.1037  0.0571
    1DIPC   D2A10302   7.585  27.524   5.867  0.2518  0.0705 -0.1977
    1DIPC   D3A10303   7.383  27.605   5.580  0.2233  0.0196 -0.0932
    1DIPC   C4A10304   7.091  27.400   5.298 -0.3992  0.2095 -0.2104
    1DIPC   C1B10305   7.561  28.141   5.983 -0.0420  0.2029  0.3031
    1DIPC   D2B10306   7.672  28.324   5.659 -0.1177  0.2069 -0.2346
    1DIPC   D3B10307   7.809  27.936   5.609  0.2551  0.1769  0.3420
    1DIPC   C4B10308   7.721  27.741   5.205 -0.1571 -0.1122 -0.1873
    1DIPC   NC310309  23.068  23.507   6.006 -0.0319 -0.2111  0.1210
    1DIPC   PO410310  23.476  23.818   6.128 -0.2756  0.0616 -0.1164
    1DIPC   GL110311  23.313  24.105   5.899  0.0800  0.0686  0.0491
    1DIPC   GL210312  23.173  24.446   5.936  0.1168 -0.1774 -0.0355
    1DIPC   C1A10313  23.122  24.155   5.518 -0.2194  0.3366 -0.0500
    1DIPC   D2A10314  23.108  23.795   5.262  0.1723 -0.0365  0.2943
    1DIPC   D3A10315  22.684  23.841   5.169  0.0937  0.0542 -0.2169
    1DIPC   C4A10316  22.563  24.117   4.805 -0.1324  0.1481 -0.2096
    1DIPC   C1B10317  23.455  24.747   5.960  0.1005  0.0693  0.1348
    1DIPC   D2B10318  23.802  25.004   5.960  0.0942 -0.2759  0.0772
    1DIPC   D3B10319  23.890  25.350   5.559 -0.0167 -0.6150 -0.0773
    1DIPC   C4B10320  23.813  25.248   5.111 -0.0996  0.0433  0.0712
    1DIPC   NC310321   1.095  12.014   5.464 -0.0055 -0.2741 -0.1748
    1DIPC   PO410322   1.417  12.143   5.539 -0.0474  0.0744  0.1469
    1DIPC   GL110323   1.672  11.817   5.276 -0.0420  0.1617  0.0202
    1DIPC   GL210324   1.387  11.722   5.168  0.5065  0.1101  0.1201
    1DIPC   C1A10325   2.032  11.618   5.087 -0.1678 -0.2226 -0.1000
    1DIPC   D2A10326   1.998  11.353   4.728  0.0710  0.0164 -0.2849
    1DIPC   D3A10327   2.235  10.960   4.559 -0.0211  0.0295 -0.0577
    1DIPC   C4A10328   2.180  10.679   4.168 -0.1147 -0.1618 -0.1062
    1DIPC   C1B10329   1.498  11.665   4.679  0.0346 -0.0615 -0.2186
    1DIPC   D2B10330   1.613  11.843   4.298 -0.0761 -0.2097 -0.1903
    1DIPC   D3B10331   1.549  11.876   3.854 -0.0958 -0.2309 -0.1685
    1DIPC   C4B10332   1.448  12.228   3.603  0.0651 -0.0278 -0.0935
    1DIPC   NC310333  23.487  29.187   6.845  0.1138 -0.0805  0.0339
    1DIPC   PO410334  23.283  29.173   6.523  0.3915 -0.0194 -0.3158
    1DIPC   GL110335  23.250  29.446   6.203  0.1379  0.0445 -0.0446
    1DIPC   GL210336  23.136  29.749   5.985  0.1461  0.2168 -0.1580
    1DIPC   C1A10337  23.267  29.303   5.753 -0.0354  0.1214 -0.2541
    1DIPC   D2A10338  23.144  29.483   5.321  0.0913 -0.1147 -0.1355
    1DIPC   D3A10339  23.234  29.865   5.371  0.2005  0.1117  0.0288
    1DIPC   C4A10340  23.248  30.006   5.006 -0.0018 -0.1880  0.0862
    1DIPC   C1B10341  23.341  30.208   5.951 -0.2112 -0.3593  0.1479
    1DIPC   D2B10342  23.565  30.412   5.570 -0.1826  0.0360 -0.0915
    1DIPC   D3B10343  23.724  30.046   5.320 -0.1683 -0.2202 -0.2590
    1DIPC   C4B10344  24.057  30.178   5.293 -0.1076  0.2333 -0.0604
    1DIPC   NC310345   2.441  13.366   6.568  0.0382 -0.2261 -0.1216
    1DIPC   PO410346   2.777  13.388   6.236  0.4498 -0.1145 -0.1429
    1DIPC   GL110347   2.636  13.401   5.724 -0.0356 -0.2307  0.1084
    1DIPC   GL210348   2.768  13.547   5.377  0.0238  0.0200  0.0402
    1DIPC   C1A10349   2.507  13.074   5.443  0.1037  0.0862 -0.1909
    1DIPC   D2A10350   2.159  13.087   5.174 -0.1134  0.1525 -0.0360
    1DIPC   D3A10351   2.299  12.966   4.779  0.1003 -0.1221  0.0927
    1DIPC   C4A10352   2.809  13.143   4.916  0.2061 -0.0374 -0.3784
    1DIPC   C1B10353   2.890  13.690   5.066  0.0280  0.0943 -0.3616
    1DIPC   D2B10354   2.943  13.667   4.677 -0.1447 -0.1431  0.0885
    1DIPC   D3B10355   3.067  13.321   4.518 -0.0071 -0.0824  0.2847
    1DIPC   C4B10356   3.343  13.102   4.343 -0.0783 -0.2015  0.1913
    1DIPC   NC310357  22.112   8.182   7.004 -0.0155 -0.1384 -0.2386
    1DIPC   PO410358  21.781   8.528   6.859  0.3444 -0.2232 -0.0587
    1DIPC   GL110359  21.803   8.509   6.414  0.2840 -0.1798 -0.1677
    1DIPC   GL210360  22.110   8.546   6.241  0.1946 -0.0959 -0.3623
    1DIPC   C1A10361  21.758   8.165   6.163 -0.3506  0.0271  0.1291
    1DIPC   D2A10362  21.848   8.048   5.764  0.0248  0.0416 -0.2120
    1DIPC   D3A10363  21.644   7.628   5.800  0.1046 -0.1089  0.0570
    1DIPC   C4A10364  21.619   7.524   5.330  0.0539  0.0885 -0.3670
    1DIPC   C1B10365  22.013   8.687   5.821 -0.0616 -0.0176  0.1134
    1DIPC   D2B10366  21.869   8.460   5.495  0.0465  0.0852 -0.0317
    1DIPC   D3B10367  21.590   8.480   5.097  0.0490 -0.1201 -0.0252
    1DIPC   C4B10368  21.168   8.510   4.828 -0.0459  0.1103 -0.1270
    1DIPC   NC310369   1.422  16.185   5.535  0.2680  0.3181  0.1331
    1DIPC   PO410370   1.606  16.026   5.260 -0.0508 -0.0703 -0.2638
    1DIPC   GL110371   1.450  16.129   4.869 -0.0274  0.1123 -0.0657
    1DIPC   GL210372   1.607  16.020   4.610 -0.0267 -0.2157  0.2270
    1DIPC   C1A10373   1.146  16.310   4.561 -0.0086 -0.0473 -0.1746
    1DIPC   D2A10374   1.061  16.365   4.154 -0.0604  0.2731  0.0840
    1DIPC   D3A10375   1.385  16.389   3.871  0.1835  0.0107 -0.0929
    1DIPC   C4A10376   1.383  16.595   3.438 -0.1413 -0.1014  0.0344
    1DIPC   C1B10377   1.484  15.906   4.177  0.0130 -0.5573 -0.4885
    1DIPC   D2B10378   1.734  15.917   3.796 -0.3821 -0.1727 -0.0234
    1DIPC   D3B10379   1.476  16.015   3.570  0.0374  0.2817 -0.1550
    1DIPC   C4B10380   1.391  15.692   3.318 -0.4731  0.0000  0.0508
    1DIPC   NC310381  13.613   8.469   7.917 -0.0911  0.1648 -0.1534
    1DIPC   PO410382  13.712   8.879   7.699  0.0031 -0.1221 -0.3053
    1DIPC   GL110383  13.637   8.586   7.298 -0.2372 -0.2422 -0.3554
    1DIPC   GL210384  13.856   8.428   7.402 -0.0177 -0.0574  0.2900
    1DIPC   C1A10385  13.432   8.447   6.895  0.0889  0.0464 -0.3422
    1DIPC   D2A10386  13.336   8.598   6.535 -0.1833 -0.2385  0.2504
    1DIPC   D3A10387  13.374   8.441   6.129 -0.1216  0.2462  0.2845
    1DIPC   C4A10388  13.528   8.667   5.724 -0.1665  0.0508  0.1366
    1DIPC   C1B10389  13.924   8.281   6.998 -0.2038 -0.1646 -0.1335
    1DIPC   D2B10390  13.818   7.896   6.787  0.3140  0.1560 -0.1135
    1DIPC   D3B10391  14.050   8.113   6.470 -0.2222  0.0184  0.2390
    1DIPC   C4B10392  13.905   8.526   6.295 -0.1220  0.0493  0.0979
    1DIPC   NC310393  24.666  24.561   6.741  0.1327 -0.0170 -0.1241
    1DIPC   PO410394  24.443  24.921   6.666  0.1822  0.1153 -0.0717
    1DIPC   GL110395  24.103  24.960   6.370 -0.1333 -0.0823 -0.5366
    1DIPC   GL210396  23.805  25.144   6.423  0.1154  0.1400 -0.1347
    1DIPC   C1A10397  24.159  25.353   6.111  0.0745  0.0969 -0.1156
    1DIPC   D2A10398  24.099  25.784   6.172  0.2828 -0.1403 -0.1155
    1DIPC   D3A10399  24.393  26.143   6.100 -0.2395  0.0647 -0.2366
    1DIPC   C4A10400  24.185  26.571   6.055  0.0829  0.0702 -0.2558
    1DIPC   C1B10401  23.652  25.451   6.174 -0.2045  0.0639  0.0095
    1DIPC   D2B10402  23.719  25.742   5.856  0.1727 -0.1364  0.0376
    1DIPC   D3B10403  23.489  26.013   6.107  0.1590 -0.0522 -0.0113
    1DIPC   C4B10404  23.343  26.314   5.959 -0.1601 -0.1568 -0.0848
    1DIPC   NC310405   6.919  15.582   6.745 -0.2181  0.1841 -0.2477
    1DIPC   PO410406   6.470  15.522   6.624  0.2304  0.1107  0.0153
    1DIPC   GL110407   6.390  15.267   6.255 -0.2105  0.2412  0.0111
    1DIPC   GL210408   6.273  15.478   6.028  0.1574 -0.1958  0.2944
    1DIPC   C1A10409   6.425  15.089   5.814 -0.0333 -0.0996  0.2954
    1DIPC   D2A10410   6.551  14.951   5.424 -0.1755  0.0494 -0.0208
    1DIPC   D3A10411   6.941  14.705   5.356  0.2338 -0.2443 -0.1402
    1DIPC   C4A10412   7.334  15.052   5.163 -0.0654 -0.2018  0.0232
    1DIPC   C1B10413   6.473  15.523   5.572 -0.0435  0.0611  0.0749
    1DIPC   D2B10414   6.743  15.362   5.125 -0.0330 -0.0679  0.1499
    1DIPC   D3B10415   6.911  14.966   4.918  0.2376 -0.1886 -0.1363
    1DIPC   C4B10416   7.214  14.603   4.826 -0.1181 -0.2123  0.0771
    1DIPC   NC310417  23.626  10.134   5.842 -0.0367 -0.1596  0.1245
    1DIPC   PO410418  24.066  10.081   5.838  0.0158  0.1140  0.1874
    1DIPC   GL110419  23.971   9.835   5.603  0.2818 -0.3460 -0.0625
    1DIPC   GL210420  23.848  10.056   5.349  0.2478  0.1448 -0.3084
    1DIPC   C1A10421  24.239   9.654   5.281 -0.1934 -0.1760 -0.1407
    1DIPC   D2A10422  24.433   9.718   4.943 -0.0896  0.2732  0.0984
    1DIPC   D3A10423  24.256   9.398   4.700  0.2753  0.1012 -0.1154
    1DIPC   C4A10424  24.053   9.573   4.246  0.2165  0.1632 -0.3389
    1DIPC   C1B10425  23.593  10.065   4.884  0.2184  0.1566  0.1293
    1DIPC   D2B10426  23.207  10.219   4.782  0.0246 -0.0327 -0.0165
    1DIPC   D3B10427  23.430  10.270   4.409 -0.0917 -0.0975 -0.4144
    1DIPC   C4B10428  23.789  10.130   4.181 -0.0707  0.0406  0.1031
    1DIPC   NC310429   6.977   9.864   7.495 -0.1843 -0.4064 -0.1105
    1DIPC   PO410430   7.239  10.175   7.363  0.1246  0.1169  0.1657
    1DIPC   GL110431   7.404  10.222   6.976  0.0476  0.3269 -0.0777
    1DIPC   GL210432   7.435  10.576   6.991 -0.1636 -0.2944 -0.1695
    1DIPC   C1A10433   7.571  10.122   6.572  0.2880  0.0212 -0.3993
    1DIPC   D2A10434   7.552   9.790   6.140  0.2636  0.0492 -0.1198
    1DIPC   D3A10435   7.812   9.984   5.936  0.3249 -0.0754  0.0312
    1DIPC   C4A10436   8.030  10.398   5.719  0.1204 -0.2733 -0.2415
    1DIPC   C1B10437   7.733  10.564   6.706  0.0179 -0.3334  0.1016
    1DIPC   D2B10438   7.794  10.400   6.213 -0.0810  0.0905  0.2069
    1DIPC   D3B10439   7.463  10.359   5.883  0.0491 -0.0360  0.1471
    1DIPC   C4B10440   7.549  10.757   5.606  0.2245  0.3632  0.0828
    1DIPC   NC310441  24.949  14.241   5.354 -0.0435 -0.0682  0.1476
    1DIPC   PO410442  24.507  14.251   5.301  0.0558  0.0573 -0.0105
    1DIPC   GL110443  24.657  14.164   4.900 -0.1349  0.1410 -0.3182
    1DIPC   GL210444  24.944  13.911   4.919  0.0736  0.0237  0.2318
    1DIPC   C1A10445  24.727  14.043   4.454  0.1977 -0.0378  0.0956
    1DIPC   D2A10446  24.611  13.890   4.117 -0.0005  0.1447 -0.2134
    1DIPC   D3A10447  24.185  13.964   4.216 -0.0602  0.0528 -0.0292
    1DIPC   C4A10448  23.848  13.898   3.866 -0.0193  0.1626 -0.1506
    1DIPC   C1B10449  24.943  13.611   4.548  0.0349  0.3241  0.1170
    1DIPC   D2B10450  25.071  13.707   4.211 -0.0993 -0.0420  0.2797
    1DIPC   D3B10451  24.928  13.307   3.960 -0.2562 -0.1950 -0.0405
    1DIPC   C4B10452  24.506  13.207   3.713 -0.0856 -0.2216 -0.0074
    1DIPC   NC310453  23.388   8.345   6.466 -0.0547  0.3728 -0.3520
    1DIPC   PO410454  23.061   8.712   6.532 -0.0351 -0.1773 -0.0246
    1DIPC   GL110455  23.032   8.516   6.138  0.0466  0.1983 -0.2375
    1DIPC   GL210456  23.153   8.687   5.841 -0.0974 -0.2466 -0.0421
    1DIPC   C1A10457  23.101   8.184   5.960  0.0244  0.3539  0.0487
    1DIPC   D2A10458  23.029   7.707   6.156  0.1504 -0.3152 -0.0933
    1DIPC   D3A10459  22.662   7.671   6.250  0.4904  0.2465  0.1865
    1DIPC   C4A10460  22.466   7.264   6.132 -0.0406 -0.0364 -0.0725
    1DIPC   C1B10461  23.070   8.753   5.385 -0.1590  0.2850 -0.1073
    1DIPC   D2B10462  23.119   8.738   5.016 -0.1347 -0.0434 -0.0443
    1DIPC   D3B10463  22.843   8.439   4.921  0.0492 -0.1806  0.0672
    1DIPC   C4B10464  22.355   8.493   4.741  0.0066  0.1901  0.3293
    1DIPC   NC310465  11.751   4.404   7.159 -0.2573  0.1274  0.1062
    1DIPC   PO410466  12.202   4.559   7.393  0.1289 -0.0573 -0.1855
    1DIPC   GL110467  12.203   4.662   6.984 -0.0716 -0.1263 -0.1685
    1DIPC   GL210468  12.498   4.801   6.923  0.0704  0.4314  0.1575
    1DIPC   C1A10469  12.143   4.565   6.478 -0.1314  0.0405 -0.0549
    1DIPC   D2A10470  12.231   4.451   6.075  0.1021 -0.0755 -0.0003
    1DIPC   D3A10471  11.957   4.844   5.914 -0.1733 -0.0561  0.2625
    1DIPC   C4A10472  11.958   5.213   6.021 -0.1428  0.0667  0.3152
    1DIPC   C1B10473  12.601   4.545   6.609  0.1528 -0.0534  0.2040
    1DIPC   D2B10474  12.933   4.301   6.523 -0.1542  0.2532 -0.0393
    1DIPC   D3B10475  13.210   4.188   6.285  0.1251  0.0608  0.2887
    1DIPC   C4B10476  13.438   4.464   5.984 -0.1804  0.0995  0.2272
    1DIPC   NC310477   9.178  28.035   7.110  0.0763 -0.3832  0.0294
    1DIPC   PO410478   8.935  28.451   6.872 -0.0633  0.0136  0.1376
    1DIPC   GL110479   8.775  28.818   6.514  0.2809  0.3280  0.0588
    1DIPC   GL210480   8.978  29.138   6.523 -0.0221 -0.3358  0.0549
    1DIPC   C1A10481   8.338  28.973   6.345  0.0582 -0.5166 -0.3527
    1DIPC   D2A10482   8.274  29.027   5.960 -0.3279 -0.2601 -0.0232
    1DIPC   D3A10483   8.020  29.267   5.683 -0.0241 -0.0445 -0.0948
    1DIPC   C4A10484   7.576  29.176   5.597  0.0069  0.2426 -0.1554
    1DIPC   C1B10485   8.872  29.242   6.083  0.0516  0.3793  0.1537
    1DIPC   D2B10486   9.019  29.312   5.667 -0.0523  0.0873 -0.3740
    1DIPC   D3B10487   9.136  29.676   5.492  0.3377  0.0367  0.3452
    1DIPC   C4B10488   9.446  29.842   5.668  0.1267  0.2113  0.1974
    1DIPC   NC310489  23.630  20.258   6.162  0.1461  0.3940  0.1171
    1DIPC   PO410490  23.189  20.305   6.227  0.4630 -0.3653 -0.4826
    1DIPC   GL110491  23.226  20.348   5.756 -0.4093 -0.0277 -0.0459
    1DIPC   GL210492  23.535  20.534   5.701 -0.2999 -0.1875  0.0052
    1DIPC   C1A10493  23.433  20.148   5.405 -0.2993  0.2912 -0.1839
    1DIPC   D2A10494  23.678  20.071   5.030 -0.1139  0.3854  0.1591
    1DIPC   D3A10495  23.377  20.206   4.855 -0.1299  0.1568  0.1826
    1DIPC   C4A10496  23.241  20.038   4.398 -0.1520  0.1042  0.2574
    1DIPC   C1B10497  23.445  20.611   5.202  0.2728 -0.1958  0.0961
    1DIPC   D2B10498  23.390  21.029   4.981 -0.0513  0.0133 -0.1184
    1DIPC   D3B10499  23.133  20.944   4.553  0.0931 -0.2073  0.1786
    1DIPC   C4B10500  23.392  21.071   4.283  0.1289  0.1015  0.1993
    1DIPC   NC310501   1.967   4.341   6.978  0.3330  0.1928 -0.3146
    1DIPC   PO410502   2.200   4.727   6.942  0.0397 -0.0176 -0.2685
    1DIPC   GL110503   2.114   4.495   6.554 -0.4649  0.0803 -0.0462
    1DIPC   GL210504   2.004   4.271   6.422 -0.3433  0.1141  0.0948
    1DIPC   C1A10505   2.139   4.664   6.138 -0.1730 -0.0559 -0.4353
    1DIPC   D2A10506   2.385   4.789   5.757  0.1519  0.2108 -0.0594
    1DIPC   D3A10507   2.570   5.157   5.630  0.1018  0.2161  0.1187
    1DIPC   C4A10508   2.332   5.479   5.748 -0.4221 -0.3690  0.0660
    1DIPC   C1B10509   2.166   4.129   5.999  0.2445 -0.1030 -0.0063
    1DIPC   D2B10510   2.526   3.783   5.937  0.1293 -0.0374 -0.0504
    1DIPC   D3B10511   2.295   3.615   5.540  0.0528 -0.0206  0.2445
    1DIPC   C4B10512   2.061   3.879   5.469  0.2901 -0.5374 -0.0673
    1DIPC   NC310513   0.371  24.738   6.570 -0.2259 -0.2845  0.0667
    1DIPC   PO410514   0.725  24.823   6.147 -0.0198 -0.1310  0.2672
    1DIPC   GL110515   0.687  24.638   5.754  0.0853 -0.1896  0.2339
    1DIPC   GL210516   1.028  24.624   5.634  0.0929 -0.0613 -0.0177
    1DIPC   C1A10517   0.663  24.523   5.307 -0.1835  0.0955 -0.1914
    1DIPC   D2A10518   0.904  24.663   5.002  0.2636 -0.0766 -0.0338
    1DIPC   D3A10519   0.878  25.049   4.709  0.0234  0.1601  0.3815
    1DIPC   C4A10520   1.112  25.402   4.703 -0.3913  0.1054 -0.0958
    1DIPC   C1B10521   1.322  24.881   5.337 -0.0283 -0.0427 -0.1162
    1DIPC   D2B10522   1.324  24.999   4.985 -0.2043 -0.0281 -0.2647
    1DIPC   D3B10523   1.352  24.927   4.552  0.3656 -0.1635  0.1874
    1DIPC   C4B10524   1.309  25.310   4.259 -0.0730 -0.1623  0.2275
    1DIPC   NC310525  21.111   0.592   6.614  0.1675 -0.1630 -0.1849
    1DIPC   PO410526  21.498   0.838   6.450 -0.4344 -0.2981  0.0772
    1DIPC   GL110527  21.560   1.039   6.066 -0.0205 -0.1910  0.2860
    1DIPC   GL210528  21.568   1.263   6.206 -0.3607  0.2150  0.3327
    1DIPC   C1A10529  21.528   1.121   5.582 -0.1569  0.1292 -0.0133
    1DIPC   D2A10530  21.366   1.172   5.138  0.2467  0.1177 -0.1828
    1DIPC   D3A10531  21.445   1.627   5.063 -0.0823  0.2432  0.2403
    1DIPC   C4A10532  21.865   1.756   5.019  0.2715 -0.3291 -0.0692
    1DIPC   C1B10533  21.312   1.493   5.857 -0.0954  0.0950  0.2823
    1DIPC   D2B10534  21.051   1.562   5.534  0.0920  0.3253  0.1331
    1DIPC   D3B10535  20.933   1.469   5.111  0.1888  0.1688  0.1534
    1DIPC   C4B10536  20.973   1.769   4.856 -0.1920  0.3129 -0.0300
    1DIPC   NC310537   2.099  26.525   6.896 -0.2217 -0.3814  0.0609
    1DIPC   PO410538   2.273  26.440   6.454  0.1919  0.0559  0.0600
    1DIPC   GL110539   2.286  26.655   6.082  0.1334 -0.0642  0.3282
    1DIPC   GL210540   2.033  26.697   5.817 -0.0327 -0.2122  0.0025
    1DIPC   C1A10541   2.327  27.092   5.940  0.1872  0.0888 -0.3686
    1DIPC   D2A10542   2.561  27.316   5.601 -0.0359 -0.0973  0.1114
    1DIPC   D3A10543   2.253  27.449   5.255  0.0868  0.1477 -0.2794
    1DIPC   C4A10544   2.184  27.883   5.112  0.0084 -0.1373 -0.1094
    1DIPC   C1B10545   1.997  26.389   5.581  0.4942  0.4371 -0.1179
    1DIPC   D2B10546   1.735  26.265   5.287 -0.0395 -0.1627 -0.1918
    1DIPC   D3B10547   1.735  26.196   4.848 -0.0046 -0.1633 -0.0392
    1DIPC   C4B10548   1.952  25.972   4.631 -0.0871  0.3999  0.2110
    1DIPC   NC310549  19.772   6.064   7.844  0.1762  0.1923 -0.0551
    1DIPC   PO410550  20.060   6.150   7.477  0.0062  0.0196 -0.0331
    1DIPC   GL110551  20.087   6.002   7.014 -0.0642 -0.3913  0.1093
    1DIPC   GL210552  20.414   6.017   6.981 -0.3899 -0.1031  0.0269
    1DIPC   C1A10553  19.960   5.838   6.552 -0.1485  0.1045 -0.0660
    1DIPC   D2A10554  19.615   5.826   6.230 -0.0387 -0.0311  0.0247
    1DIPC   D3A10555  19.628   5.341   6.284 -0.2107  0.0778  0.2693
    1DIPC   C4A10556  19.921   5.073   5.996  0.1169  0.1634 -0.1567
    1DIPC   C1B10557  20.407   6.054   6.533 -0.0028 -0.0794  0.2206
    1DIPC   D2B10558  20.678   6.074   6.153  0.1956 -0.0491  0.1460
    1DIPC   D3B10559  20.410   6.439   6.166  0.4371 -0.3647 -0.2069
    1DIPC   C4B10560  20.312   6.771   5.836 -0.1033 -0.1826  0.3449
    1DIPC   NC310561   1.301  25.910   6.320 -0.0495  0.4747 -0.0071
    1DIPC   PO410562   1.586  26.169   6.162 -0.0034 -0.0941  0.0610
    1DIPC   GL110563   1.594  26.131   5.796  0.2266  0.1199 -0.0377
    1DIPC   GL210564   1.401  26.371   5.732  0.1064  0.2545  0.1170
    1DIPC   C1A10565   1.666  25.838   5.497  0.0654  0.3344  0.0317
    1DIPC   D2A10566   1.780  25.753   5.091  0.0000  0.1122 -0.0648
    1DIPC   D3A10567   1.498  25.810   4.649  0.3519  0.1488 -0.0479
    1DIPC   C4A10568   1.180  26.135   4.610 -0.0090  0.2371  0.1902
    1DIPC   C1B10569   1.282  26.525   5.375 -0.1461 -0.1603  0.0253
    1DIPC   D2B10570   1.379  26.526   4.920 -0.7552 -0.1472 -0.0648
    1DIPC   D3B10571   1.717  26.749   4.897  0.0449  0.1355 -0.2286
    1DIPC   C4B10572   1.823  27.137   5.081  0.1184  0.0727 -0.2202
    1DIPC   NC310573   4.866  14.202   7.068 -0.2369 -0.2827  0.1297
    1DIPC   PO410574   5.184  14.295   6.683  0.2056  0.0135 -0.0212
    1DIPC   GL110575   5.422  14.249   6.315  0.0071 -0.2171 -0.1228
    1DIPC   GL210576   5.765  14.142   6.259  0.0001  0.0418 -0.2203
    1DIPC   C1A10577   5.545  13.980   5.853 -0.0184  0.1841 -0.1766
    1DIPC   D2A10578   5.673  13.887   5.467 -0.2488 -0.0106  0.0961
    1DIPC   D3A10579   6.042  13.665   5.367 -0.2595  0.0737 -0.3517
    1DIPC   C4A10580   6.210  13.342   5.689 -0.0652  0.2805 -0.2306
    1DIPC   C1B10581   5.835  14.352   5.971 -0.1597  0.0358 -0.0236
    1DIPC   D2B10582   5.632  14.628   5.596 -0.0473  0.0997  0.0399
    1DIPC   D3B10583   5.536  14.310   5.326  0.1972  0.0073  0.1210
    1DIPC   C4B10584   5.225  14.370   4.963  0.1054 -0.0372 -0.0677
    1DIPC   NC310585   9.818  24.847   5.781  0.0755  0.1721 -0.0291
    1DIPC   PO410586  10.133  24.659   6.060  0.2325 -0.1058  0.3111
    1DIPC   GL110587  10.313  24.740   5.642  0.7710 -0.2861  0.1187
    1DIPC   GL210588  10.225  24.603   5.303  0.2871  0.0504 -0.2689
    1DIPC   C1A10589  10.271  25.100   5.418 -0.2109  0.0555  0.0352
    1DIPC   D2A10590  10.298  25.445   5.085 -0.3151 -0.0166  0.1967
    1DIPC   D3A10591   9.880  25.571   5.348 -0.2260  0.0543  0.2901
    1DIPC   C4A10592   9.536  25.621   4.985  0.0861  0.0591  0.0665
    1DIPC   C1B10593  10.220  24.914   4.946 -0.2425  0.2977  0.1232
    1DIPC   D2B10594  10.235  25.189   4.595 -0.1421  0.3170  0.4275
    1DIPC   D3B10595  10.392  25.643   4.574 -0.0093  0.0341  0.1139
    1DIPC   C4B10596  10.759  25.863   4.570 -0.1358  0.2601 -0.2608
    1DIPC   NC310597  11.647  23.974   6.129 -0.0585  0.4861 -0.0947
    1DIPC   PO410598  12.052  23.860   6.037 -0.0640  0.0348 -0.1353
    1DIPC   GL110599  12.422  23.853   5.858 -0.2569  0.0670 -0.0532
    1DIPC   GL210600  12.331  23.797   5.502 -0.1140  0.0572 -0.3120
    1DIPC   C1A10601  12.698  23.524   5.754 -0.0712  0.2725  0.0282
    1DIPC   D2A10602  12.713  23.429   5.333  0.1094 -0.1978 -0.0027
    1DIPC   D3A10603  12.643  23.527   4.787 -0.0007  0.2999  0.2736
    1DIPC   C4A10604  12.282  23.347   4.485  0.0064 -0.0571  0.0548
    1DIPC   C1B10605  12.529  23.841   5.098 -0.0682  0.2203 -0.1663
    1DIPC   D2B10606  12.544  23.958   4.547  0.3215  0.2359  0.0221
    1DIPC   D3B10607  12.686  24.298   4.272 -0.0162  0.1654 -0.1555
    1DIPC   C4B10608  12.870  24.446   4.001 -0.3344 -0.0894 -0.1562
    1DIPC   NC310609   6.608  19.972   5.714  0.1552  0.2340 -0.0076
    1DIPC   PO410610   6.428  19.604   5.729 -0.0176  0.1325  0.1059
    1DIPC   GL110611   6.694  19.475   5.499 -0.2047  0.0559  0.3222
    1DIPC   GL210612   6.931  19.174   5.444  0.1400  0.1345  0.1979
    1DIPC   C1A10613   6.955  19.628   5.149  0.2608 -0.0045  0.2103
    1DIPC   D2A10614   6.971  19.516   4.711 -0.1708  0.1454  0.2236
    1DIPC   D3A10615   7.351  19.344   4.372 -0.1978 -0.2146  0.0317
    1DIPC   C4A10616   7.537  18.890   4.434 -0.1483  0.4040  0.1500
    1DIPC   C1B10617   6.687  19.244   5.066  0.1409 -0.0832  0.0059
    1DIPC   D2B10618   6.252  19.220   4.897  0.3139  0.0593  0.0385
    1DIPC   D3B10619   6.411  18.950   4.595 -0.1533  0.1062  0.0086
    1DIPC   C4B10620   6.341  18.715   4.228 -0.3465 -0.1077 -0.1358
    1DIPC   NC310621   9.435   9.617   8.003 -0.2585  0.1531  0.1654
    1DIPC   PO410622   9.217   9.159   7.806  0.2517 -0.2244 -0.0470
    1DIPC   GL110623   9.177   9.143   7.383  0.0228  0.3241 -0.5243
    1DIPC   GL210624   9.341   9.458   7.324  0.1385  0.0736 -0.0357
    1DIPC   C1A10625   9.249   9.120   6.934 -0.0375 -0.1358  0.3794
    1DIPC   D2A10626   9.343   8.913   6.586  0.3730  0.1600 -0.2396
    1DIPC   D3A10627   9.329   9.166   6.146 -0.0450 -0.2555  0.4369
    1DIPC   C4A10628   9.322   9.637   6.023  0.3761  0.2172  0.0872
    1DIPC   C1B10629   9.704   9.322   7.088 -0.2050 -0.3780 -0.0375
    1DIPC   D2B10630  10.107   9.615   7.023  0.0656  0.0086 -0.0213
    1DIPC   D3B10631  10.218   9.652   6.639 -0.0271 -0.1305  0.3112
    1DIPC   C4B10632  10.051   9.879   6.306  0.1700  0.0249  0.0810
    1DIPC   NC310633   3.310  29.634   7.489 -0.0761  0.1026 -0.0348
    1DIPC   PO410634   3.049  29.328   7.278 -0.1294  0.1898 -0.0528
    1DIPC   GL110635   3.264  29.398   6.972  0.0460  0.1811 -0.0602
    1DIPC   GL210636   3.372  29.128   6.745  0.0086  0.3116  0.1022
    1DIPC   C1A10637   3.589  29.617   6.596 -0.1157  0.1547 -0.1297
    1DIPC   D2A10638   3.783  29.503   6.208  0.2145  0.1230  0.5121
    1DIPC   D3A10639   4.010  29.565   5.812 -0.3038  0.3132  0.0657
    1DIPC   C4A10640   4.087  29.073   5.535  0.2406  0.0470  0.2728
    1DIPC   C1B10641   3.455  28.957   6.340  0.2355  0.2096 -0.0839
    1DIPC   D2B10642   3.431  28.792   5.933  0.0232 -0.1425 -0.2662
    1DIPC   D3B10643   3.634  28.873   5.558 -0.0768  0.0459  0.2032
    1DIPC   C4B10644   3.653  29.119   5.280  0.1792 -0.2368 -0.0202
    1DIPC   NC310645   2.968  13.827   6.482  0.0203 -0.1486 -0.0045
    1DIPC   PO410646   3.207  13.977   6.317  0.0114 -0.1229  0.1470
    1DIPC   GL110647   3.453  14.174   6.043 -0.0127 -0.1324  0.0260
    1DIPC   GL210648   3.732  14.272   6.258 -0.0820 -0.0342 -0.1186
    1DIPC   C1A10649   3.700  14.122   5.615  0.0437 -0.1197 -0.0704
    1DIPC   D2A10650   3.693  13.974   5.213  0.1618  0.1148 -0.1832
    1DIPC   D3A10651   3.880  13.778   4.810  0.1509 -0.0875  0.0982
    1DIPC   C4A10652   4.164  13.583   4.567  0.4791  0.0562 -0.0997
    1DIPC   C1B10653   3.963  14.410   5.999 -0.0951  0.0412  0.1221
    1DIPC   D2B10654   4.205  14.363   5.577 -0.1186 -0.3115  0.1205
    1DIPC   D3B10655   4.639  14.168   5.613  0.2368 -0.0039 -0.1498
    1DIPC   C4B10656   4.904  14.093   5.959  0.2379  0.2204  0.2972
    1DIPC   NC310657  25.975   2.489   6.513  0.1135 -0.1630 -0.2283
    1DIPC   PO410658  25.800   2.910   6.327 -0.0461 -0.1153  0.0516
    1DIPC   GL110659  25.856   2.977   5.967 -0.2227  0.1312  0.1030
    1DIPC   GL210660  25.780   3.355   5.974  0.2275  0.0298 -0.3094
    1DIPC   C1A10661  25.606   3.015   5.594 -0.1724 -0.1241  0.0279
    1DIPC   D2A10662  25.331   3.045   5.252  0.1147  0.0660 -0.1016
    1DIPC   D3A10663  25.326   3.055   4.776  0.2211  0.1104  0.0486
    1DIPC   C4A10664  25.606   2.952   4.665  0.0628 -0.0642  0.1633
    1DIPC   C1B10665  25.864   3.405   5.452 -0.1566  0.0564  0.1323
    1DIPC   D2B10666  25.768   3.299   5.083 -0.2407  0.0462  0.3049
    1DIPC   D3B10667  26.097   3.234   4.816 -0.0010 -0.1444 -0.0563
    1DIPC   C4B10668  26.235   3.560   4.540 -0.0952  0.1254  0.1363
    1DIPC   NC310669  14.733   6.438   7.708  0.2359 -0.2357  0.0474
    1DIPC   PO410670  14.573   6.147   7.426 -0.2266 -0.0947  0.1551
    1DIPC   GL110671  14.646   5.988   7.076 -0.1539 -0.2411 -0.1957
    1DIPC   GL210672  14.977   6.055   7.099  0.1532  0.0213 -0.1340
    1DIPC   C1A10673  14.831   5.877   6.647 -0.4199 -0.2103  0.2513
    1DIPC   D2A10674  15.154   5.660   6.319  0.1056 -0.1865 -0.4639
    1DIPC   D3A10675  15.473   5.900   6.166 -0.2125 -0.1428 -0.0425
    1DIPC   C4A10676  15.688   5.627   5.838  0.0851 -0.0155  0.1893
    1DIPC   C1B10677  14.992   6.359   6.828 -0.1921 -0.2251  0.1365
    1DIPC   D2B10678  14.944   6.804   6.619  0.1491 -0.3201 -0.1561
    1DIPC   D3B10679  14.953   7.100   6.311 -0.2149  0.6634  0.0309
    1DIPC   C4B10680  15.170   7.400   6.005  0.2140 -0.1142  0.3562
    1DIPC   NC310681  17.085  28.207   7.201  0.1684  0.1131 -0.3368
    1DIPC   PO410682  16.757  28.218   6.981 -0.0629  0.0548  0.0249
    1DIPC   GL110683  16.742  28.345   6.476 -0.0741 -0.0966 -0.3466
    1DIPC   GL210684  16.878  28.078   6.301 -0.3664 -0.1657 -0.0177
    1DIPC   C1A10685  16.456  28.672   6.286  0.0159  0.0731  0.1095
    1DIPC   D2A10686  16.069  28.774   6.363  0.0475 -0.0623 -0.5002
    1DIPC   D3A10687  15.642  28.754   6.185 -0.1403  0.0225 -0.2012
    1DIPC   C4A10688  15.742  28.664   5.689 -0.3144 -0.1666 -0.2931
    1DIPC   C1B10689  17.079  28.107   5.987 -0.1624  0.3321 -0.6439
    1DIPC   D2B10690  17.212  28.162   5.517  0.0033  0.2385 -0.2271
    1DIPC   D3B10691  16.887  27.988   5.150 -0.2973  0.1591  0.1492
    1DIPC   C4B10692  17.100  27.885   4.704  0.0867 -0.1269  0.0468
    1DIPC   NC310693  25.978   6.231   6.690 -0.2902  0.0310 -0.3902
    1DIPC   PO410694  26.242   6.240   6.472  0.0683 -0.0234 -0.0339
    1DIPC   GL110695  26.334   6.338   5.967 -0.1024 -0.2031 -0.0267
    1DIPC   GL210696  26.154   6.600   5.879  0.1406 -0.2023  0.1780
    1DIPC   C1A10697  26.366   6.245   5.530  0.2174 -0.0667  0.0153
    1DIPC   D2A10698  26.369   5.922   5.222 -0.2550 -0.0842  0.1446
    1DIPC   D3A10699  26.083   6.145   5.083 -0.1317 -0.0900 -0.0391
    1DIPC   C4A10700  25.575   6.043   5.021  0.0086 -0.1031 -0.1434
    1DIPC   C1B10701  25.847   6.331   5.734 -0.0084 -0.1585 -0.2600
    1DIPC   D2B10702  25.461   6.147   5.765  0.1819  0.0534  0.2255
    1DIPC   D3B10703  25.318   5.975   5.423 -0.2789 -0.0778  0.2085
    1DIPC   C4B10704  25.215   5.524   5.323 -0.1013  0.2749  0.4592
    1DIPC   NC310705   5.522  13.931   6.627  0.0315  0.0383 -0.3112
    1DIPC   PO410706   5.334  13.532   6.467  0.2028 -0.0623 -0.1415
    1DIPC   GL110707   5.395  13.510   6.040  0.0277 -0.0696  0.1146
    1DIPC   GL210708   5.199  13.232   5.881  0.0070 -0.1111 -0.1724
    1DIPC   C1A10709   5.164  13.645   5.617  0.0801  0.0317  0.2884
    1DIPC   D2A10710   5.165  14.039   5.504 -0.1876  0.0805 -0.0809
    1DIPC   D3A10711   4.955  14.040   5.197  0.1207 -0.2117  0.0820
    1DIPC   C4A10712   4.671  13.851   5.204  0.0008 -0.0383 -0.0245
    1DIPC   C1B10713   4.817  13.189   5.587  0.0513  0.0281  0.0923
    1DIPC   D2B10714   4.744  13.215   5.117  0.3246 -0.1155  0.0185
    1DIPC   D3B10715   4.979  12.923   5.088 -0.0493 -0.0391 -0.0526
    1DIPC   C4B10716   4.841  12.468   5.132 -0.0910 -0.0640  0.1498
    1DIPC   NC310717   6.047  25.491   5.788 -0.1735  0.2719 -0.2131
    1DIPC   PO410718   5.591  25.484   5.840 -0.0405  0.0279  0.1439
    1DIPC   GL110719   5.264  25.458   5.580  0.0153  0.0815  0.0907
    1DIPC   GL210720   5.059  25.616   5.480 -0.1300 -0.1438 -0.1828
    1DIPC   C1A10721   5.362  25.424   5.109 -0.0505  0.0235 -0.2637
    1DIPC   D2A10722   5.417  25.642   4.665 -0.2289 -0.0215  0.1445
    1DIPC   D3A10723   5.561  25.741   4.266  0.0718 -0.0529 -0.0308
    1DIPC   C4A10724   5.665  25.538   3.959  0.1129  0.0359 -0.0808
    1DIPC   C1B10725   5.022  25.798   5.027  0.3051  0.0199  0.1984
    1DIPC   D2B10726   4.818  26.199   4.892 -0.3326 -0.2156 -0.0965
    1DIPC   D3B10727   4.736  26.079   4.547 -0.0338 -0.0729  0.0834
    1DIPC   C4B10728   5.001  25.875   4.309  0.0943  0.0324 -0.0704
    1DIPC   NC310729   0.457  27.671   6.739 -0.2286 -0.1757  0.1568
    1DIPC   PO410730   0.827  27.500   6.799 -0.3056  0.0683 -0.1857
    1DIPC   GL110731   0.763  27.535   6.353  0.1409  0.0414  0.1121
    1DIPC   GL210732   1.090  27.472   6.236  0.3439  0.2049  0.2374
    1DIPC   C1A10733   0.701  27.345   5.916  0.2024  0.0347  0.2890
    1DIPC   D2A10734   0.578  27.229   5.479 -0.2158  0.0520  0.0878
    1DIPC   D3A10735   0.348  27.671   5.258 -0.3037  0.0353  0.1651
    1DIPC   C4A10736   0.190  28.023   5.472 -0.0228  0.1817 -0.1314
    1DIPC   C1B10737   1.212  27.674   5.812  0.1990  0.1831  0.3863
    1DIPC   D2B10738   1.263  27.725   5.392  0.0211  0.1106  0.0087
    1DIPC   D3B10739   1.485  28.102   5.370  0.0326  0.2727  0.2634
    1DIPC   C4B10740   1.695  28.003   4.999  0.0812 -0.1067  0.0923
    1DIPC   NC310741   3.374   1.156   7.381  0.0785  0.1501 -0.1505
    1DIPC   PO410742   3.820   1.027   7.204 -0.1346  0.0401 -0.2011
    1DIPC   GL110743   3.503   0.950   6.920 -0.0432  0.2847  0.5528
    1DIPC   GL210744   3.317   1.267   6.883  0.1412  0.2914 -0.0717
    1DIPC   C1A10745   3.422   1.031   6.430 -0.2798  0.0330 -0.1458
    1DIPC   D2A10746   3.260   1.017   6.075  0.2542 -0.0114  0.1878
    1DIPC   D3A10747   3.032   1.341   5.753  0.1346  0.2462 -0.0168
    1DIPC   C4A10748   2.656   1.603   5.740 -0.0414  0.1049 -0.3164
    1DIPC   C1B10749   3.046   0.943   6.778 -0.2265  0.0966 -0.0149
    1DIPC   D2B10750   2.897   0.803   6.395 -0.0121 -0.1284  0.0121
    1DIPC   D3B10751   3.078   0.462   6.265 -0.1449 -0.0545  0.1359
    1DIPC   C4B10752   3.260   0.272   5.963 -0.2534 -0.1809  0.0095
    1DIPC   NC310753  22.945   1.676   6.380 -0.1535  0.1111 -0.1390
    1DIPC   PO410754  23.337   1.534   6.463 -0.1054  0.2945  0.1520
    1DIPC   GL110755  23.251   1.363   6.109 -0.3585  0.1800 -0.4581
    1DIPC   GL210756  22.958   1.332   5.989 -0.0925  0.3466 -0.3765
    1DIPC   C1A10757  23.470   1.194   5.815 -0.0553  0.1131  0.1679
    1DIPC   D2A10758  23.565   0.786   5.585 -0.3870 -0.1020 -0.0232
    1DIPC   D3A10759  23.358   1.074   5.364  0.0474 -0.0847  0.1399
    1DIPC   C4A10760  23.557   1.390   5.364 -0.0223 -0.1713  0.1235
    1DIPC   C1B10761  23.041   1.394   5.594 -0.1345 -0.2293  0.0668
    1DIPC   D2B10762  22.953   1.430   5.102  0.2696 -0.5838 -0.0597
    1DIPC   D3B10763  23.268   1.499   4.869 -0.1653  0.2933 -0.1043
    1DIPC   C4B10764  23.506   1.190   4.910  0.0376  0.2556 -0.0498
    1DIPC   NC310765   8.529   2.287   6.579  0.0854 -0.1612  0.0430
    1DIPC   PO410766   8.928   1.987   6.596 -0.2253 -0.1148  0.1385
    1DIPC   GL110767   9.254   2.041   6.276  0.0463 -0.4894 -0.1609
    1DIPC   GL210768   9.192   1.896   6.122 -0.0532  0.2141  0.5194
    1DIPC   C1A10769   9.670   1.735   6.220  0.1668  0.0099  0.3481
    1DIPC   D2A10770   9.755   1.418   5.877  0.2148 -0.1922 -0.2278
    1DIPC   D3A10771  10.147   1.521   6.051  0.0226  0.1472 -0.1047
    1DIPC   C4A10772  10.289   1.820   5.879 -0.0037 -0.1125  0.2243
    1DIPC   C1B10773   9.263   1.781   5.760  0.1735 -0.0871 -0.1708
    1DIPC   D2B10774   9.492   1.554   5.370 -0.0298 -0.1514  0.0256
    1DIPC   D3B10775   9.254   1.411   5.061 -0.0549 -0.1759 -0.1984
    1DIPC   C4B10776   9.293   1.042   4.849 -0.1097  0.2906 -0.0312
    1DIPC   NC310777   7.240  25.050   6.227 -0.0851  0.0876  0.0782
    1DIPC   PO410778   6.998  24.678   6.009 -0.0071  0.0267  0.3018
    1DIPC   GL110779   7.067  24.990   5.773 -0.0182  0.1758 -0.1227
    1DIPC   GL210780   6.863  25.078   5.594 -0.1661 -0.1864 -0.2697
    1DIPC   C1A10781   7.385  25.077   5.500 -0.0241  0.2353  0.0889
    1DIPC   D2A10782   7.515  24.998   5.133 -0.0764  0.2075  0.4823
    1DIPC   D3A10783   7.646  25.391   5.006  0.0605  0.0324  0.0335
    1DIPC   C4A10784   7.749  25.605   4.628  0.0668 -0.2513  0.0093
    1DIPC   C1B10785   7.034  24.836   5.226  0.0320  0.0402  0.2279
    1DIPC   D2B10786   7.202  24.834   4.753  0.2917 -0.0633 -0.0485
    1DIPC   D3B10787   7.241  24.361   4.787 -0.0414  0.3653 -0.1294
    1DIPC   C4B10788   7.058  24.208   5.153 -0.0320  0.4534  0.4820
    1DIPC   NC310789   3.449   5.478   6.727 -0.1746  0.1776  0.3568
    1DIPC   PO410790   3.846   5.313   6.949 -0.2806 -0.1443  0.1012
    1DIPC   GL110791   3.952   5.425   6.505  0.0018 -0.2344  0.0711
    1DIPC   GL210792   4.274   5.351   6.405  0.2654  0.0328 -0.3332
    1DIPC   C1A10793   3.742   5.358   6.148 -0.4270  0.2323  0.2642
    1DIPC   D2A10794   3.521   5.073   5.930 -0.0446 -0.0511 -0.1467
    1DIPC   D3A10795   3.650   5.296   5.538 -0.0767  0.0678 -0.1576
    1DIPC   C4A10796   3.542   5.468   5.199 -0.0376  0.0915  0.1764
    1DIPC   C1B10797   4.335   5.304   6.063  0.1675 -0.0233 -0.1408
    1DIPC   D2B10798   4.015   5.086   5.845  0.4073  0.1071 -0.2845
    1DIPC   D3B10799   4.297   5.112   5.507  0.0985 -0.2025  0.3239
    1DIPC   C4B10800   4.161   5.425   5.262 -0.1326 -0.2757  0.0262
    1DIPC   NC310801   5.210  22.510   5.381 -0.2043  0.0486  0.1300
    1DIPC   PO410802   5.489  22.775   5.107  0.1320 -0.0743 -0.1486
    1DIPC   GL110803   5.500  22.684   4.694  0.5835 -0.1448 -0.0872
    1DIPC   GL210804   5.739  22.750   4.565 -0.1821 -0.1399  0.0325
    1DIPC   C1A10805   5.322  22.905   4.330  0.1643 -0.1604  0.3066
    1DIPC   D2A10806   5.190  22.741   4.016  0.0503 -0.2493  0.0429
    1DIPC   D3A10807   4.793  22.823   3.888  0.2327 -0.2148  0.3444
    1DIPC   C4A10808   4.637  22.820   3.527  0.3236  0.0327 -0.0960
    1DIPC   C1B10809   6.120  22.614   4.455 -0.1466  0.0802 -0.0867
    1DIPC   D2B10810   6.493  22.642   4.291 -0.2098  0.0084 -0.0789
    1DIPC   D3B10811   6.247  22.681   3.941  0.0682  0.2058 -0.0916
    1DIPC   C4B10812   6.172  22.353   3.643 -0.2473  0.0699  0.0122
    1DIPC   NC310813  28.182  22.553   6.753  0.0461 -0.0803 -0.2037
    1DIPC   PO410814  28.364  22.694   6.346  0.2106 -0.0133 -0.0582
    1DIPC   GL110815  28.390  22.364   6.043 -0.2486 -0.0126  0.0016
    1DIPC   GL210816  28.130  22.281   6.126  0.3181  0.2709  0.2476
    1DIPC   C1A10817  28.313  22.240   5.629 -0.2956 -0.1363  0.5410
    1DIPC   D2A10818  28.346  21.993   5.305 -0.0807 -0.0148 -0.2313
    1DIPC   D3A10819  28.742  21.970   5.542 -0.2719 -0.0429  0.0057
    1DIPC   C4A10820  28.806  22.324   5.703 -0.3006  0.1438 -0.0676
    1DIPC   C1B10821  27.907  22.436   5.750  0.0667  0.1099  0.3018
    1DIPC   D2B10822  27.934  22.397   5.294 -0.0254 -0.2499 -0.2300
    1DIPC   D3B10823  28.047  22.814   5.066  0.6245 -0.1792 -0.1657
    1DIPC   C4B10824  28.376  23.086   5.388 -0.1682  0.0270 -0.0587
    1DIPC   NC310825   6.003  20.610   5.793  0.0197 -0.0242  0.3999
    1DIPC   PO410826   6.381  20.424   5.597 -0.0839  0.0523  0.0767
    1DIPC   GL110827   6.625  20.249   5.315  0.0901  0.2609 -0.1623
    1DIPC   GL210828   6.695  20.558   5.225 -0.0290  0.0284 -0.0725
    1DIPC   C1A10829   6.556  19.867   5.104 -0.1884 -0.2323  0.4459
    1DIPC   D2A10830   6.470  19.668   4.761  0.0122 -0.2069  0.0030
    1DIPC   D3A10831   6.726  19.983   4.622 -0.3561 -0.2635  0.0408
    1DIPC   C4A10832   6.849  19.871   4.265  0.0100 -0.0300 -0.2132
    1DIPC   C1B10833   6.997  20.171   5.041  0.3155  0.0976  0.1648
    1DIPC   D2B10834   7.384  19.901   5.108  0.1801  0.1590  0.1612
    1DIPC   D3B10835   7.683  19.915   4.853  0.0284  0.0411  0.1196
    1DIPC   C4B10836   7.826  19.664   4.582 -0.2120 -0.1507 -0.0967
    1DIPC   NC310837  28.032  12.805   5.978 -0.1324 -0.1850 -0.1054
    1DIPC   PO410838  28.140  13.135   5.861 -0.3719 -0.0839  0.0467
    1DIPC   GL110839  28.277  13.031   5.377 -0.5836  0.2052  0.0767
    1DIPC   GL210840  28.575  12.800   5.231 -0.0231  0.1727 -0.2178
    1DIPC   C1A10841  28.064  12.620   5.068  0.0730 -0.0030  0.2005
    1DIPC   D2A10842  27.989  12.708   4.606  0.0219 -0.1016 -0.0546
    1DIPC   D3A10843  27.936  12.311   4.527 -0.4132  0.2630 -0.0081
    1DIPC   C4A10844  28.142  12.079   4.710 -0.1700  0.0433  0.1148
    1DIPC   C1B10845  28.452  12.806   4.769 -0.1365 -0.1738 -0.2740
    1DIPC   D2B10846  28.381  13.078   4.454 -0.0407 -0.0149 -0.0827
    1DIPC   D3B10847  28.197  13.365   4.792 -0.1850  0.2709  0.2731
    1DIPC   C4B10848  27.889  13.124   5.051  0.0239 -0.0009 -0.0870
    1DIPC   NC310849  20.057  20.285   6.829  0.0780 -0.2275  0.0842
    1DIPC   PO410850  20.446  20.500   6.568  0.0834 -0.0971 -0.0565
    1DIPC   GL110851  20.378  20.391   6.281  0.3014 -0.0567  0.0100
    1DIPC   GL210852  20.399  20.655   6.091 -0.3739 -0.0862 -0.0980
    1DIPC   C1A10853  20.403  20.259   5.856 -0.0031 -0.0740  0.0346
    1DIPC   D2A10854  20.577  20.141   5.530  0.0477  0.1653 -0.0309
    1DIPC   D3A10855  20.702  20.462   5.384  0.3566 -0.0738 -0.2374
    1DIPC   C4A10856  21.068  20.452   5.079 -0.2937  0.0962  0.1257
    1DIPC   C1B10857  20.254  20.699   5.644  0.0398  0.0820  0.1375
    1DIPC   D2B10858  20.092  20.582   5.262 -0.0459  0.3714  0.0192
    1DIPC   D3B10859  19.735  20.234   5.066 -0.1464  0.0240  0.1461
    1DIPC   C4B10860  19.770  20.301   4.615 -0.0967  0.0683 -0.0867
    1DIPC   NC310861   4.990   9.537   6.670 -0.2999  0.1544  0.0091
    1DIPC   PO410862   4.581   9.245   6.657 -0.0694 -0.2719  0.1047
    1DIPC   GL110863   4.767   9.233   6.238 -0.3245  0.0151  0.0145
    1DIPC   GL210864   4.882   9.562   6.182  0.0865 -0.1978 -0.3387
    1DIPC   C1A10865   4.847   9.031   5.867  0.0175  0.0797  0.2010
    1DIPC   D2A10866   4.681   8.931   5.492  0.0980  0.1692  0.0936
    1DIPC   D3A10867   4.886   8.505   5.511  0.4726  0.0107 -0.0536
    1DIPC   C4A10868   5.272   8.726   5.674  0.1726  0.4883 -0.2137
    1DIPC   C1B10869   5.127   9.663   5.893 -0.2786 -0.0883  0.0036
    1DIPC   D2B10870   5.223   9.694   5.429 -0.0294 -0.1802  0.0377
    1DIPC   D3B10871   5.364   9.238   5.531  0.0469 -0.0936  0.1301
    1DIPC   C4B10872   5.093   9.020   5.291 -0.0805  0.1051  0.3346
    1DIPC   NC310873   7.800  15.713   7.134  0.1079 -0.4485 -0.0419
    1DIPC   PO410874   7.536  16.090   7.229 -0.0845  0.1581  0.1204
    1DIPC   GL110875   7.457  16.155   6.749 -0.2162  0.1482 -0.0330
    1DIPC   GL210876   7.321  15.884   6.693  0.3273 -0.0861  0.1137
    1DIPC   C1A10877   7.548  16.279   6.301  0.1153  0.1297 -0.1040
    1DIPC   D2A10878   7.447  16.760   6.169  0.0031  0.2914  0.2356
    1DIPC   D3A10879   7.117  16.822   5.880 -0.1843  0.1090 -0.0365
    1DIPC   C4A10880   6.965  17.043   5.553 -0.2572  0.0606 -0.1693
    1DIPC   C1B10881   7.179  15.867   6.234 -0.3673  0.3487 -0.0551
    1DIPC   D2B10882   7.285  15.676   5.909 -0.1543 -0.0601 -0.0440
    1DIPC   D3B10883   7.698  15.750   5.895  0.0772  0.0040 -0.0932
    1DIPC   C4B10884   7.930  15.419   5.811 -0.1548  0.4928  0.1235
    1DIPC   NC310885   5.523   0.716   7.388 -0.1737 -0.1813  0.0322
    1DIPC   PO410886   5.221   0.657   7.055  0.4075  0.2929 -0.0798
    1DIPC   GL110887   5.470   0.587   6.708  0.0144  0.1707  0.2301
    1DIPC   GL210888   5.271   0.661   6.477  0.1558 -0.1286 -0.1088
    1DIPC   C1A10889   5.765   0.883   6.710  0.1008  0.1548 -0.4969
    1DIPC   D2A10890   5.885   1.139   6.308  0.0147 -0.3365  0.0321
    1DIPC   D3A10891   5.793   0.783   6.158  0.2140 -0.0906 -0.0861
    1DIPC   C4A10892   5.895   0.438   6.460  0.1564 -0.0988 -0.2497
    1DIPC   C1B10893   5.113   0.662   6.099  0.2413  0.1519 -0.0763
    1DIPC   D2B10894   4.808   0.625   5.653 -0.1881 -0.1549  0.2259
    1DIPC   D3B10895   4.713   0.982   5.413  0.1250 -0.0732  0.0214
    1DIPC   C4B10896   4.715   1.364   5.492  0.1098 -0.0526  0.0400
    1DIPC   NC310897  29.364   0.054   6.822 -0.3782 -0.2516 -0.2893
    1DIPC   PO410898  29.340   0.236   6.411  0.0677 -0.0920  0.1238
    1DIPC   GL110899  29.319  -0.063   6.088 -0.3944  0.1317 -0.0421
    1DIPC   GL210900  28.942  -0.288   6.017 -0.0325  0.1972  0.1234
    1DIPC   C1A10901  29.529  -0.294   5.891 -0.1620  0.2036 -0.2416
    1DIPC   D2A10902  29.749  -0.363   5.498 -0.0943 -0.0172 -0.3326
    1DIPC   D3A10903  30.059  -0.718   5.388 -0.2266 -0.2272  0.2641
    1DIPC   C4A10904  30.379  -0.902   5.577  0.1849  0.0485 -0.1410
    1DIPC   C1B10905  28.738  -0.337   5.623 -0.1088 -0.2296 -0.1971
    1DIPC   D2B10906  28.633  -0.629   5.198  0.3450 -0.1400 -0.1471
    1DIPC   D3B10907  29.122  -0.657   5.191 -0.0444 -0.4795 -0.0064
    1DIPC   C4B10908  29.288  -0.953   5.240  0.0307  0.1092 -0.1159
    1DIPC   NC310909  21.619  28.475   6.276  0.1726 -0.1166 -0.1716
    1DIPC   PO410910  21.260  28.213   6.412  0.0697  0.0650 -0.0502
    1DIPC   GL110911  21.199  28.205   5.988 -0.2433 -0.0824 -0.2828
    1DIPC   GL210912  21.468  28.418   5.776  0.1816  0.2529 -0.0737
    1DIPC   C1A10913  21.009  28.324   5.626 -0.2370 -0.1891  0.1601
    1DIPC   D2A10914  20.972  28.233   5.299  0.0091  0.0244  0.2663
    1DIPC   D3A10915  20.612  28.232   5.199  0.3130  0.2764  0.1964
    1DIPC   C4A10916  20.503  27.802   4.946 -0.0648 -0.0825 -0.0283
    1DIPC   C1B10917  21.688  28.757   5.627  0.0587  0.1137 -0.2146
    1DIPC   D2B10918  21.946  28.781   5.284  0.1760  0.4258  0.1513
    1DIPC   D3B10919  21.765  29.088   5.165 -0.1143  0.0728  0.1862
    1DIPC   C4B10920  22.099  29.338   5.095 -0.2768  0.1004  0.0454
    1DIPC   NC310921   6.417  26.927   6.444 -0.3192 -0.1043 -0.2190
    1DIPC   PO410922   6.130  26.631   6.373 -0.0883  0.3949 -0.0319
    1DIPC   GL110923   6.293  26.451   5.971 -0.0323  0.2706  0.0322
    1DIPC   GL210924   6.630  26.649   6.015 -0.3136  0.1123 -0.1679
    1DIPC   C1A10925   6.406  26.353   5.477  0.0122 -0.3318 -0.1387
    1DIPC   D2A10926   6.413  26.350   5.045 -0.1230 -0.1507 -0.1372
    1DIPC   D3A10927   6.556  25.965   5.065  0.1500  0.0443  0.1362
    1DIPC   C4A10928   6.892  25.791   4.843 -0.4652 -0.3531 -0.1448
    1DIPC   C1B10929   6.885  26.942   5.990  0.1000 -0.3136  0.1757
    1DIPC   D2B10930   7.060  27.127   5.714 -0.1158 -0.0589  0.1068
    1DIPC   D3B10931   7.057  26.815   5.453  0.1269 -0.0914 -0.5517
    1DIPC   C4B10932   6.730  26.683   5.346  0.1102 -0.1272  0.0363
    1DIPC   NC310933  26.235  16.203   5.100  0.0963 -0.1800 -0.0873
    1DIPC   PO410934  26.018  16.508   5.252  0.2364  0.1312  0.2598
    1DIPC   GL110935  25.617  16.641   4.993 -0.0929 -0.4126 -0.0955
    1DIPC   GL210936  25.632  17.065   4.891  0.2010  0.2006 -0.2296
    1DIPC   C1A10937  25.193  16.694   4.739  0.0543 -0.2348 -0.0000
    1DIPC   D2A10938  24.795  16.639   4.835  0.0941  0.3361 -0.2111
    1DIPC   D3A10939  24.563  16.732   4.352  0.0433 -0.0364 -0.1302
    1DIPC   C4A10940  24.652  16.515   3.968  0.0245  0.2163  0.1997
    1DIPC   C1B10941  25.660  16.893   4.558  0.2091  0.2643  0.0185
    1DIPC   D2B10942  25.672  16.926   4.228 -0.1808 -0.1090  0.2021
    1DIPC   D3B10943  25.320  17.196   4.394  0.0376 -0.1877 -0.0539
    1DIPC   C4B10944  24.948  17.089   4.574 -0.2894  0.2626  0.2535
    1DIPC   NC310945  28.055  23.828   6.701  0.1404 -0.1198  0.0569
    1DIPC   PO410946  27.698  23.470   6.671  0.1878  0.1396 -0.0456
    1DIPC   GL110947  27.551  23.316   6.257  0.0873  0.0403 -0.0322
    1DIPC   GL210948  27.364  23.415   5.973 -0.0999 -0.1595  0.0514
    1DIPC   C1A10949  27.742  23.084   5.907  0.0248  0.1025  0.1487
    1DIPC   D2A10950  27.901  23.058   5.459 -0.1358 -0.1172 -0.1225
    1DIPC   D3A10951  27.533  23.390   5.493 -0.3333 -0.1061 -0.1205
    1DIPC   C4A10952  27.653  23.822   5.479  0.1473  0.1913  0.2770
    1DIPC   C1B10953  27.090  23.650   5.651  0.1063  0.0727  0.1414
    1DIPC   D2B10954  27.186  23.736   5.332  0.0719  0.0581  0.0352
    1DIPC   D3B10955  27.341  23.613   4.937 -0.1036  0.0169  0.1689
    1DIPC   C4B10956  27.298  23.649   4.597  0.3532 -0.0539  0.1087
    1DIPC   NC310957  16.267   5.818   6.928  0.0298  0.1108 -0.2498
    1DIPC   PO410958  15.980   5.869   7.302 -0.6128 -0.2400 -0.2528
    1DIPC   GL110959  15.755   5.784   6.895  0.0172 -0.0961  0.0008
    1DIPC   GL210960  15.927   6.139   6.829 -0.1988 -0.0433 -0.1331
    1DIPC   C1A10961  15.649   5.653   6.569  0.0338 -0.0138  0.2229
    1DIPC   D2A10962  15.563   5.391   6.239 -0.0689 -0.1219 -0.1608
    1DIPC   D3A10963  15.566   5.139   5.889 -0.0356  0.1373 -0.1403
    1DIPC   C4A10964  15.419   5.338   5.499 -0.1222 -0.2487 -0.4532
    1DIPC   C1B10965  15.776   6.223   6.478 -0.1527 -0.0238 -0.0336
    1DIPC   D2B10966  15.819   6.452   6.112 -0.2400  0.0261  0.0162
    1DIPC   D3B10967  15.745   6.971   6.079  0.1689  0.1607  0.1278
    1DIPC   C4B10968  15.832   7.176   6.406 -0.1452 -0.4681 -0.0769
    1DIPC   NC310969  16.382  26.510   6.622  0.0213 -0.0192 -0.1168
    1DIPC   PO410970  16.521  26.166   6.838 -0.0990 -0.1387  0.0549
    1DIPC   GL110971  16.600  26.083   6.366  0.1907 -0.1116 -0.1343
    1DIPC   GL210972  16.827  25.851   6.344  0.2141 -0.1977  0.1811
    1DIPC   C1A10973  16.542  26.306   6.000  0.1858  0.0826  0.3002
    1DIPC   D2A10974  16.516  26.416   5.598 -0.2199 -0.0691  0.2000
    1DIPC   D3A10975  16.107  26.512   5.454 -0.2209  0.2302  0.0219
    1DIPC   C4A10976  15.756  26.402   5.593 -0.0696  0.1763 -0.1778
    1DIPC   C1B10977  16.638  25.823   5.910 -0.1840 -0.0198  0.1902
    1DIPC   D2B10978  16.476  25.843   5.465 -0.0040  0.1724  0.1755
    1DIPC   D3B10979  16.270  25.484   5.553  0.0952  0.3279 -0.3945
    1DIPC   C4B10980  16.352  25.352   6.002  0.0861  0.1362 -0.2155
    1DIPC   NC310981  30.050   6.008   6.232  0.0690 -0.0742  0.1776
    1DIPC   PO410982  29.774   5.738   6.437 -0.1401 -0.3660 -0.0983
    1DIPC   GL110983  29.623   5.647   6.028  0.2618 -0.1591  0.1925
    1DIPC   GL210984  29.717   5.914   5.783 -0.0961 -0.0179  0.1882
    1DIPC   C1A10985  29.689   5.401   5.660  0.1182  0.0887  0.0676
    1DIPC   D2A10986  29.840   5.059   5.566  0.0105  0.1102  0.1502
    1DIPC   D3A10987  29.959   5.243   5.232 -0.0559  0.0797 -0.0140
    1DIPC   C4A10988  30.400   5.230   5.023  0.0190  0.2242 -0.0313
    1DIPC   C1B10989  29.396   5.812   5.584  0.2582 -0.0572  0.2015
    1DIPC   D2B10990  29.275   6.225   5.397 -0.2098 -0.0692  0.1554
    1DIPC   D3B10991  29.230   5.910   5.102 -0.0773  0.0186 -0.1999
    1DIPC   C4B10992  29.614   5.599   5.183  0.2891 -0.1996 -0.0744
    1DIPC   NC310993  10.292   1.634   7.647 -0.0463  0.4329 -0.3781
    1DIPC   PO410994  10.741   1.654   7.569 -0.2533 -0.0531 -0.1562
    1DIPC   GL110995  10.862   1.684   7.106 -0.1678  0.1906 -0.0534
    1DIPC   GL210996  11.109   1.748   6.985  0.3617 -0.0427 -0.0327
    1DIPC   C1A10997  10.600   1.738   6.817  0.1216  0.1421  0.0309
    1DIPC   D2A10998  10.442   1.672   6.424 -0.2612  0.1253  0.1210
    1DIPC   D3A10999  10.616   1.452   6.057 -0.1951  0.1945  0.0153
    1DIPC   C4A11000  10.474   1.463   5.598 -0.0540 -0.1157  0.0079
    1DIPC   C1B11001  11.398   1.613   6.684 -0.1453  0.0037 -0.1168
    1DIPC   D2B11002  11.597   1.250   6.833 -0.0291 -0.3478  0.1112
    1DIPC   D3B11003  11.315   1.138   6.476 -0.2484 -0.0834  0.2454
    1DIPC   C4B11004  11.320   1.464   6.229 -0.0476 -0.1620  0.2513
    1DIPC   NC311005  27.111   5.320   6.860  0.0409 -0.0224 -0.1950
    1DIPC   PO411006  27.217   5.648   6.590  0.3963 -0.1329  0.1047
    1DIPC   GL111007  27.098   5.825   6.163  0.0595  0.1416 -0.0905
    1DIPC   GL211008  26.681   5.827   6.112  0.3700 -0.2497  0.0496
    1DIPC   C1A11009  27.173   5.910   5.726  0.1668  0.0464  0.3548
    1DIPC   D2A11010  27.270   6.248   5.450  0.1792 -0.0805  0.0745
    1DIPC   D3A11011  27.252   6.145   5.053  0.1135 -0.2309  0.2162
    1DIPC   C4A11012  27.023   6.001   4.672 -0.0613  0.0876  0.2586
    1DIPC   C1B11013  26.789   6.194   5.947 -0.0703 -0.0297  0.0361
    1DIPC   D2B11014  26.835   6.381   5.645 -0.0609  0.2253 -0.0094
    1DIPC   D3B11015  27.226   6.610   5.750  0.0465  0.0663 -0.0161
    1DIPC   C4B11016  27.591   6.390   5.781 -0.0400 -0.2376  0.0608
    1DIPC   NC311017  12.188  11.114   7.660  0.1930  0.2953 -0.0530
    1DIPC   PO411018  12.234  10.639   7.600  0.0672 -0.0501 -0.0421
    1DIPC   GL111019  12.358  10.432   7.199 -0.0930 -0.0956 -0.1583
    1DIPC   GL211020  12.654  10.583   7.051 -0.2124 -0.2333 -0.0768
    1DIPC   C1A11021  12.325  10.396   6.725 -0.2550 -0.1216  0.2038
    1DIPC   D2A11022  12.671  10.338   6.356 -0.4390 -0.1743  0.2623
    1DIPC   D3A11023  12.655  10.568   6.008 -0.0506  0.2955  0.3824
    1DIPC   C4A11024  12.733  10.653   5.515 -0.0482  0.1466  0.2512
    1DIPC   C1B11025  12.951  10.361   6.742  0.0665  0.0027 -0.1386
    1DIPC   D2B11026  13.357  10.324   6.619 -0.2761  0.1190  0.0510
    1DIPC   D3B11027  13.436  10.174   6.910 -0.3349 -0.2790  0.2162
    1DIPC   C4B11028  13.173   9.915   6.990  0.0550 -0.1594 -0.0501
    1DIPC   NC311029   4.823  18.156   5.706  0.0231 -0.1951  0.0028
    1DIPC   PO411030   4.517  17.936   5.621 -0.0593 -0.0762 -0.1651
    1DIPC   GL111031   4.896  18.020   5.239  0.0717  0.2911  0.1100
    1DIPC   GL211032   4.686  18.304   5.022 -0.1809  0.0514 -0.0974
    1DIPC   C1A11033   5.184  18.050   4.774 -0.2322  0.1008 -0.1016
    1DIPC   D2A11034   5.595  17.898   4.629  0.2795 -0.4740  0.2069
    1DIPC   D3A11035   5.368  17.977   4.289  0.1089  0.0116 -0.1579
    1DIPC   C4A11036   5.102  17.653   4.047 -0.1181  0.2551 -0.0658
    1DIPC   C1B11037   4.862  18.407   4.642 -0.1942 -0.1558  0.0595
    1DIPC   D2B11038   5.139  18.402   4.317  0.1584  0.1757  0.0650
    1DIPC   D3B11039   4.902  18.676   4.031  0.1338  0.0297 -0.0447
    1DIPC   C4B11040   5.095  18.570   3.690 -0.0921 -0.2193 -0.1939
    1DIPC   NC311041  22.426   5.546   7.799  0.0402  0.2175 -0.0651
    1DIPC   PO411042  22.632   5.583   7.349  0.0881 -0.1142  0.0930
    1DIPC   GL111043  22.697   5.806   6.903  0.0905 -0.1526  0.0977
    1DIPC   GL211044  22.587   5.715   6.484  0.0385  0.1579 -0.1383
    1DIPC   C1A11045  23.026   6.001   6.559 -0.0267  0.1852 -0.0202
    1DIPC   D2A11046  23.221   5.988   6.209  0.1321  0.0304  0.0418
    1DIPC   D3A11047  23.332   5.574   6.348 -0.1696 -0.0206 -0.0747
    1DIPC   C4A11048  23.069   5.300   6.577 -0.1271  0.2485 -0.1614
    1DIPC   C1B11049  22.814   5.492   6.201 -0.3005 -0.0679 -0.1974
    1DIPC   D2B11050  23.039   5.515   5.789  0.0108 -0.1934  0.1922
    1DIPC   D3B11051  23.245   5.337   5.429  0.1788  0.3603  0.1120
    1DIPC   C4B11052  23.099   5.215   5.008  0.1527  0.0632 -0.4288
    1DIPC   NC311053   7.089  10.690   7.325  0.1286  0.0075 -0.0213
    1DIPC   PO411054   7.519  10.933   7.307  0.1529  0.4393 -0.0266
    1DIPC   GL111055   7.722  11.047   6.913 -0.1679  0.2518  0.0041
    1DIPC   GL211056   7.617  11.247   6.873 -0.0042 -0.0459 -0.0483
    1DIPC   C1A11057   7.757  10.998   6.430  0.3175  0.3307 -0.1553
    1DIPC   D2A11058   7.820  10.854   6.008 -0.1761 -0.4220 -0.3887
    1DIPC   D3A11059   7.910  11.341   6.021 -0.1429  0.1533 -0.0656
    1DIPC   C4A11060   7.797  11.513   6.488  0.1073  0.2252 -0.0645
    1DIPC   C1B11061   8.099  11.455   6.863  0.0955  0.0191  0.2287
    1DIPC   D2B11062   8.316  11.709   6.829  0.3707 -0.0138  0.1676
    1DIPC   D3B11063   8.733  11.740   6.777 -0.0831  0.2581 -0.0766
    1DIPC   C4B11064   8.946  11.363   6.792 -0.0552  0.0948 -0.1663
    1DIPC   NC311065   4.399  22.346   5.595  0.1623 -0.0109  0.3395
    1DIPC   PO411066   4.017  22.615   5.472  0.0344  0.0046  0.1697
    1DIPC   GL111067   3.932  22.617   5.020 -0.2241 -0.1703 -0.1320
    1DIPC   GL211068   3.862  22.251   4.878  0.0925 -0.2035  0.1771
    1DIPC   C1A11069   4.234  22.636   4.714  0.2061 -0.0974  0.0689
    1DIPC   D2A11070   4.390  22.676   4.457 -0.0703 -0.2383  0.2134
    1DIPC   D3A11071   4.458  23.063   4.715  0.4185  0.3222 -0.0913
    1DIPC   C4A11072   4.570  23.461   4.583  0.2757  0.0967  0.2083
    1DIPC   C1B11073   4.031  22.188   4.519 -0.0172 -0.0262 -0.1187
    1DIPC   D2B11074   4.123  22.132   4.038 -0.0119 -0.1917  0.1095
    1DIPC   D3B11075   4.005  22.286   3.625  0.0494  0.1986  0.0846
    1DIPC   C4B11076   4.198  21.982   3.258 -0.3273  0.0637 -0.0561
    1DIPC   NC311077   7.590  22.664   6.305  0.1216 -0.1109  0.1718
    1DIPC   PO411078   7.910  22.598   5.989  0.0355 -0.1702 -0.0935
    1DIPC   GL111079   7.929  22.585   5.491  0.1369 -0.0928  0.1349
    1DIPC   GL211080   8.181  22.279   5.388  0.1542 -0.1148 -0.0436
    1DIPC   C1A11081   8.043  22.777   5.059 -0.0776  0.1069  0.2553
    1DIPC   D2A11082   8.335  22.878   4.746 -0.0843 -0.0767 -0.1741
    1DIPC   D3A11083   8.614  23.014   4.945  0.1411  0.1248 -0.1312
    1DIPC   C4A11084   8.636  23.444   5.053 -0.1100  0.0680 -0.0618
    1DIPC   C1B11085   7.837  22.340   5.092  0.2649  0.0905  0.2151
    1DIPC   D2B11086   7.794  22.501   4.691 -0.2082  0.0842 -0.3495
    1DIPC   D3B11087   7.609  22.693   4.391 -0.2159 -0.0440 -0.2818
    1DIPC   C4B11088   7.205  22.625   4.284  0.1990  0.2215  0.1501
    1DIPC   NC311089  17.911   0.694   6.920  0.0537  0.1900  0.2096
    1DIPC   PO411090  17.757   1.039   6.842 -0.1545  0.1008 -0.1052
    1DIPC   GL111091  17.721   0.864   6.416  0.0491 -0.2796 -0.0595
    1DIPC   GL211092  17.851   1.075   6.263 -0.2175 -0.3090  0.1157
    1DIPC   C1A11093  17.992   0.548   6.192  0.0950  0.0392  0.1842
    1DIPC   D2A11094  18.365   0.378   6.022 -0.1905 -0.0384 -0.2811
    1DIPC   D3A11095  18.288   0.453   5.612  0.0116  0.0359  0.0436
    1DIPC   C4A11096  18.097   0.876   5.744 -0.0292  0.0286 -0.1899
    1DIPC   C1B11097  17.932   1.334   5.894  0.0801  0.0097 -0.0528
    1DIPC   D2B11098  18.264   1.349   5.531 -0.2234 -0.0180  0.0288
    1DIPC   D3B11099  18.000   1.566   5.174  0.3299 -0.2598  0.3847
    1DIPC   C4B11100  18.120   1.719   4.754  0.1177  0.0440  0.2614
    1DIPC   NC311101  21.585  24.713   6.710 -0.4226  0.0966  0.4190
    1DIPC   PO411102  21.392  24.345   6.861 -0.0024  0.0884  0.7281
    1DIPC   GL111103  21.285  24.385   6.463  0.3411 -0.1228  0.0847
    1DIPC   GL211104  21.019  24.681   6.296 -0.4015  0.0725  0.2450
    1DIPC   C1A11105  21.216  24.279   6.132 -0.2817 -0.2275 -0.2400
    1DIPC   D2A11106  20.913  24.313   5.705  0.2617  0.0989  0.1192
    1DIPC   D3A11107  21.159  24.471   5.310 -0.2742  0.2196 -0.0689
    1DIPC   C4A11108  21.242  24.526   4.896  0.2119 -0.3092 -0.2795
    1DIPC   C1B11109  21.221  25.036   5.980  0.1523 -0.2151  0.2538
    1DIPC   D2B11110  21.314  25.300   5.701 -0.1041  0.0065  0.2664
    1DIPC   D3B11111  21.451  25.673   5.482 -0.0527  0.1015  0.1723
    1DIPC   C4B11112  21.283  25.931   5.245  0.3232  0.1568  0.1890
    1DIPC   NC311113   2.522  23.975   5.402 -0.0374  0.3440  0.0685
    1DIPC   PO411114   2.330  23.632   5.689 -0.1906 -0.1034 -0.2296
    1DIPC   GL111115   2.411  23.492   5.219 -0.4536 -0.1153  0.0794
    1DIPC   GL211116   2.723  23.545   5.231 -0.1019  0.0679  0.2008
    1DIPC   C1A11117   2.315  23.721   4.791  0.1563  0.1102 -0.0992
    1DIPC   D2A11118   2.465  23.919   4.435 -0.0054  0.0728  0.1220
    1DIPC   D3A11119   2.872  23.918   4.369  0.0937  0.4484 -0.1292
    1DIPC   C4A11120   2.896  23.515   4.350  0.0468 -0.0288 -0.2447
    1DIPC   C1B11121   2.824  23.836   4.858  0.5036  0.2214  0.1677
    1DIPC   D2B11122   2.558  24.269   4.926 -0.0178  0.1591 -0.2343
    1DIPC   D3B11123   2.234  24.438   4.698  0.0049 -0.1882  0.2036
    1DIPC   C4B11124   2.214  24.299   4.361  0.0169 -0.3999  0.2161
    1DIPC   NC311125  25.290   5.754   6.957  0.2834 -0.0154 -0.1733
    1DIPC   PO411126  25.248   6.095   6.852  0.2369 -0.0771 -0.2910
    1DIPC   GL111127  25.134   5.839   6.419 -0.2577 -0.0320  0.2501
    1DIPC   GL211128  25.110   6.020   6.089  0.2335 -0.0630  0.0564
    1DIPC   C1A11129  24.847   5.473   6.250  0.1539 -0.0152  0.1272
    1DIPC   D2A11130  24.525   5.284   6.425  0.0301 -0.1292 -0.1351
    1DIPC   D3A11131  24.273   5.672   6.291 -0.0986  0.1492 -0.1665
    1DIPC   C4A11132  23.994   5.702   5.877  0.1286  0.1575 -0.3173
    1DIPC   C1B11133  24.911   6.176   5.692 -0.1622  0.2622 -0.1712
    1DIPC   D2B11134  24.686   5.966   5.372  0.1968  0.2235  0.1553
    1DIPC   D3B11135  24.217   5.872   5.442  0.1676 -0.1856 -0.0616
    1DIPC   C4B11136  23.889   5.859   5.045  0.0212  0.2847  0.1400
    1DIPC   NC311137   1.761  20.363   6.184  0.0368  0.0300  0.0510
    1DIPC   PO411138   1.806  20.658   5.837  0.0327 -0.1060  0.2599
    1DIPC   GL111139   1.635  20.742   5.334 -0.0446  0.1883  0.1411
    1DIPC   GL211140   1.361  20.803   5.218  0.0202  0.1761 -0.1486
    1DIPC   C1A11141   1.719  20.878   4.833  0.3830  0.4851  0.1871
    1DIPC   D2A11142   1.552  20.612   4.507  0.1042  0.1037  0.0485
    1DIPC   D3A11143   1.203  20.846   4.260  0.0545  0.1856 -0.3641
    1DIPC   C4A11144   1.151  20.842   3.832  0.1471 -0.0817 -0.1056
    1DIPC   C1B11145   1.361  21.280   5.090  0.1503  0.0843  0.3955
    1DIPC   D2B11146   1.476  21.675   5.208 -0.0906  0.3172  0.0198
    1DIPC   D3B11147   1.290  22.040   5.122 -0.1103  0.3080 -0.0482
    1DIPC   C4B11148   1.220  22.116   4.768 -0.0165 -0.2734  0.2127
    1DIPC   NC311149   2.967  23.151   5.955 -0.1884  0.1875  0.1126
    1DIPC   PO411150   3.173  23.282   5.591 -0.0590  0.3145  0.0391
    1DIPC   GL111151   3.340  23.476   5.216  0.1850 -0.2043  0.1928
    1DIPC   GL211152   3.148  23.485   4.937  0.1918  0.1132 -0.1683
    1DIPC   C1A11153   3.676  23.313   4.839  0.4544 -0.0002  0.1506
    1DIPC   D2A11154   3.949  23.024   4.700  0.0934 -0.1394 -0.1507
    1DIPC   D3A11155   4.106  23.059   4.288 -0.2180  0.1452 -0.3297
    1DIPC   C4A11156   3.812  23.083   3.914 -0.1395 -0.2019  0.0006
    1DIPC   C1B11157   3.290  23.725   4.551 -0.3553 -0.2573  0.2410
    1DIPC   D2B11158   3.659  23.677   4.242 -0.0766 -0.2660 -0.0686
    1DIPC   D3B11159   3.672  23.955   3.880  0.0132 -0.1821  0.2838
    1DIPC   C4B11160   3.833  24.291   3.808  0.2421  0.0845 -0.3116
    1DIPC   NC311161   2.880  21.380   5.186  0.1907 -0.2382 -0.0925
    1DIPC   PO411162   3.384  21.509   5.104 -0.4266  0.0958 -0.2728
    1DIPC   GL111163   3.396  21.457   4.674 -0.1739  0.1716 -0.1166
    1DIPC   GL211164   2.964  21.509   4.700 -0.0904  0.1914 -0.3804
    1DIPC   C1A11165   3.391  21.723   4.362  0.0388  0.0918  0.0026
    1DIPC   D2A11166   3.589  22.142   4.184 -0.0985  0.1247  0.0589
    1DIPC   D3A11167   3.139  22.394   4.113  0.0193 -0.1486  0.2626
    1DIPC   C4A11168   3.077  22.441   4.464  0.0384 -0.1002 -0.1154
    1DIPC   C1B11169   2.935  21.454   4.223  0.1576 -0.0936 -0.2097
    1DIPC   D2B11170   2.842  21.254   3.867  0.1712  0.0434  0.0956
    1DIPC   D3B11171   2.979  21.071   3.522 -0.5786  0.5093 -0.0624
    1DIPC   C4B11172   3.266  21.169   3.305 -0.0913 -0.1084  0.1081
    1DIPC   NC311173  25.420  15.146   5.430 -0.2197 -0.0446  0.2825
    1DIPC   PO411174  25.124  15.109   5.116  0.0587  0.2563  0.3247
    1DIPC   GL111175  24.920  15.163   4.821  0.1056 -0.1630  0.3036
    1DIPC   GL211176  24.884  15.517   4.826  0.0009  0.2746 -0.0443
    1DIPC   C1A11177  24.802  15.080   4.437  0.1753 -0.0481  0.1413
    1DIPC   D2A11178  24.725  14.791   4.179  0.0263 -0.0150 -0.1359
    1DIPC   D3A11179  25.015  14.448   4.359  0.1151 -0.1919 -0.2754
    1DIPC   C4A11180  25.196  14.153   4.098 -0.0259 -0.5710 -0.2024
    1DIPC   C1B11181  24.816  15.884   4.754 -0.0700  0.2598 -0.1158
    1DIPC   D2B11182  24.941  16.283   4.519  0.3003  0.1447  0.1027
    1DIPC   D3B11183  24.874  16.047   4.099 -0.1004 -0.2910 -0.0563
    1DIPC   C4B11184  25.096  16.237   3.884  0.0050  0.2588 -0.0508
    1DIPC   NC311185  12.052   7.382   8.056 -0.1261 -0.2823  0.1317
    1DIPC   PO411186  12.143   7.048   7.768  0.3836  0.0721 -0.1617
    1DIPC   GL111187  12.390   7.333   7.616 -0.0531  0.0906 -0.0218
    1DIPC   GL211188  12.291   7.571   7.342 -0.0448 -0.1757  0.0806
    1DIPC   C1A11189  12.787   7.480   7.415 -0.3451 -0.2037 -0.0252
    1DIPC   D2A11190  12.989   7.344   7.043 -0.1984  0.1608 -0.1089
    1DIPC   D3A11191  12.768   7.729   6.986  0.1959 -0.0104  0.1079
    1DIPC   C4A11192  12.460   7.741   6.860 -0.0516 -0.1085 -0.1029
    1DIPC   C1B11193  12.476   7.252   7.128  0.0146  0.0314  0.4042
    1DIPC   D2B11194  12.681   7.160   6.718  0.0184 -0.0101 -0.1884
    1DIPC   D3B11195  12.881   6.912   6.900 -0.2436  0.2898  0.3205
    1DIPC   C4B11196  13.284   7.028   6.797  0.0526  0.2660 -0.0206
    1DIPC   NC311197  22.288  11.595   6.889 -0.0699 -0.0528 -0.2139
    1DIPC   PO411198  22.126  11.699   6.496 -0.1299 -0.0643  0.3050
    1DIPC   GL111199  22.030  11.903   6.086 -0.2447  0.0932  0.1646
    1DIPC   GL211200  22.080  12.310   5.959  0.1460  0.0079 -0.0364
    1DIPC   C1A11201  21.726  11.983   5.908 -0.3146  0.2197 -0.0267
    1DIPC   D2A11202  21.372  12.115   6.113 -0.1799  0.0564  0.2080
    1DIPC   D3A11203  20.925  12.341   6.032 -0.1497  0.0110 -0.1909
    1DIPC   C4A11204  20.903  12.533   5.578 -0.2060  0.0206  0.3452
    1DIPC   C1B11205  21.871  12.332   5.618  0.0884  0.1607  0.0405
    1DIPC   D2B11206  21.844  12.607   5.339 -0.0949  0.3412 -0.0759
    1DIPC   D3B11207  22.241  12.651   5.187 -0.5180 -0.0520  0.0082
    1DIPC   C4B11208  22.429  12.464   4.885  0.1726  0.2007 -0.0795
    1DIPC   NC311209  29.990   8.846   5.901  0.0288 -0.1067  0.0059
    1DIPC   PO411210  29.837   9.315   5.728 -0.0521 -0.0999  0.0047
    1DIPC   GL111211  29.918   9.428   5.335 -0.1510 -0.2309  0.0648
    1DIPC   GL211212  29.605   9.379   5.088  0.0784 -0.3850  0.2082
    1DIPC   C1A11213  30.100   9.661   5.039 -0.1329  0.1071  0.1193
    1DIPC   D2A11214  30.019   9.711   4.602  0.0401  0.3770  0.1626
    1DIPC   D3A11215  30.300  10.018   4.613  0.3212  0.0132  0.2457
    1DIPC   C4A11216  30.610   9.910   4.989  0.1040 -0.0291 -0.2244
    1DIPC   C1B11217  29.642   9.419   4.703 -0.2684 -0.2372  0.1946
    1DIPC   D2B11218  29.699   9.419   4.248 -0.2596  0.0611 -0.3228
    1DIPC   D3B11219  29.706   9.008   4.383 -0.0674  0.1186  0.0050
    1DIPC   C4B11220  29.358   8.718   4.235  0.3345  0.0586 -0.1252
    1DIPC   NC311221   9.149  10.577   8.622  0.2210 -0.2789 -0.0601
    1DIPC   PO411222   9.171  10.726   8.155 -0.0080 -0.2917  0.0888
    1DIPC   GL111223   9.297  10.657   7.692  0.0675 -0.3088  0.2027
    1DIPC   GL211224   9.563  10.784   7.595 -0.1401 -0.2088  0.0016
    1DIPC   C1A11225   9.137  10.647   7.267  0.0255  0.0593 -0.2262
    1DIPC   D2A11226   9.038  10.352   6.963 -0.0208 -0.2565  0.0393
    1DIPC   D3A11227   8.924  10.457   6.511 -0.1086  0.3072  0.2359
    1DIPC   C4A11228   8.992  10.103   6.261 -0.1110 -0.3221 -0.2874
    1DIPC   C1B11229   9.600  10.818   7.083  0.0543 -0.3068 -0.0189
    1DIPC   D2B11230   9.795  10.556   6.739 -0.0612 -0.0039 -0.0954
    1DIPC   D3B11231   9.845  10.802   6.408 -0.0076  0.2562 -0.0675
    1DIPC   C4B11232   9.847  10.505   6.153  0.3144 -0.2585  0.2389
    1DIPC   NC311233   3.918  21.618   5.229 -0.0470 -0.0984 -0.1512
    1DIPC   PO411234   4.210  21.811   5.008  0.1248  0.0781  0.1416
    1DIPC   GL111235   4.298  21.599   4.649 -0.0953  0.0296 -0.0167
    1DIPC   GL211236   4.356  21.818   4.446 -0.2621  0.0312 -0.0180
    1DIPC   C1A11237   4.520  21.355   4.500 -0.0330 -0.0480  0.0154
    1DIPC   D2A11238   4.686  21.028   4.433 -0.1558 -0.0055  0.0255
    1DIPC   D3A11239   4.286  20.891   4.271 -0.0507  0.2638  0.1570
    1DIPC   C4A11240   4.011  21.258   4.403 -0.0184  0.1053 -0.2770
    1DIPC   C1B11241   3.921  21.745   4.273  0.0642 -0.2623  0.2159
    1DIPC   D2B11242   3.769  21.703   3.863 -0.0565 -0.0417  0.1271
    1DIPC   D3B11243   4.011  21.574   3.484  0.2286  0.0037  0.1093
    1DIPC   C4B11244   3.728  21.279   3.170  0.0583 -0.0510 -0.1000
    1DIPC   NC311245  24.602   2.476   7.148  0.0229  0.0723  0.0380
    1DIPC   PO411246  24.601   2.314   6.734  0.0207 -0.2269  0.0788
    1DIPC   GL111247  24.400   2.438   6.348 -0.2519 -0.1891 -0.0626
    1DIPC   GL211248  24.366   2.773   6.269  0.1319 -0.1394 -0.0782
    1DIPC   C1A11249  24.245   2.292   6.034  0.0538 -0.1793  0.2716
    1DIPC   D2A11250  24.579   2.030   5.909 -0.1325  0.0164  0.0700
    1DIPC   D3A11251  24.249   1.765   5.780 -0.1482 -0.0439 -0.2818
    1DIPC   C4A11252  24.234   1.372   6.037  0.0954  0.0791 -0.0099
    1DIPC   C1B11253  24.022   2.866   5.954  0.1058  0.0258  0.1068
    1DIPC   D2B11254  23.698   2.731   5.851 -0.0393  0.1861 -0.2409
    1DIPC   D3B11255  23.888   2.437   5.541 -0.2086  0.1761 -0.2399
    1DIPC   C4B11256  24.257   2.210   5.469  0.0035 -0.1858 -0.2636
    1DIPC   NC311257  17.777  28.819   6.855 -0.0800  0.1687  0.1890
    1DIPC   PO411258  17.821  28.375   6.473 -0.1933 -0.2979  0.0142
    1DIPC   GL111259  18.166  28.461   6.172 -0.2855  0.0284 -0.0896
    1DIPC   GL211260  18.100  28.332   5.860  0.1014  0.1841 -0.3628
    1DIPC   C1A11261  18.314  28.894   5.960  0.5029  0.2405 -0.0550
    1DIPC   D2A11262  18.376  29.388   5.785  0.3058 -0.1462  0.1663
    1DIPC   D3A11263  18.190  29.582   5.330 -0.0868 -0.1528 -0.1037
    1DIPC   C4A11264  17.872  29.754   5.074  0.1814 -0.1866 -0.1317
    1DIPC   C1B11265  17.810  28.225   5.555  0.0650  0.1550  0.1367
    1DIPC   D2B11266  17.716  28.674   5.335  0.1693  0.0112  0.0336
    1DIPC   D3B11267  17.363  28.558   5.002 -0.0744  0.2068  0.1611
    1DIPC   C4B11268  17.356  28.137   5.079  0.3479 -0.1261 -0.2229
    1DIPC   NC311269  27.309  22.390   6.422 -0.1945  0.1489  0.0796
    1DIPC   PO411270  27.045  22.248   6.098  0.0487  0.2030 -0.0340
    1DIPC   GL111271  27.089  22.305   5.715  0.2495  0.0736  0.0726
    1DIPC   GL211272  26.905  22.659   5.695 -0.4554 -0.4019  0.0725
    1DIPC   C1A11273  27.062  22.273   5.320 -0.1217  0.1117 -0.1954
    1DIPC   D2A11274  26.773  22.162   5.007 -0.0469  0.0395 -0.0324
    1DIPC   D3A11275  26.598  22.450   4.748  0.1030 -0.2833 -0.1005
    1DIPC   C4A11276  26.554  22.583   4.438  0.1728 -0.3453 -0.1404
    1DIPC   C1B11277  26.968  22.737   5.274  0.3704  0.0043  0.1949
    1DIPC   D2B11278  26.669  22.893   4.922  0.2171  0.0006 -0.0535
    1DIPC   D3B11279  26.659  23.226   4.700  0.1445  0.4014  0.4373
    1DIPC   C4B11280  26.614  23.002   4.222 -0.0224  0.1794 -0.0327
    1DIPC   NC311281  22.647  25.765   6.652 -0.1491 -0.1920 -0.1138
    1DIPC   PO411282  22.933  25.981   6.524 -0.3312 -0.0934 -0.0489
    1DIPC   GL111283  23.091  25.761   6.216 -0.3413 -0.2689 -0.2162
    1DIPC   GL211284  23.163  25.388   6.332  0.1170  0.1342 -0.2671
    1DIPC   C1A11285  23.161  25.783   5.799  0.3668  0.2225 -0.1875
    1DIPC   D2A11286  23.213  26.078   5.517 -0.0310  0.0682  0.3201
    1DIPC   D3A11287  22.869  26.228   5.241 -0.1716 -0.2481  0.0959
    1DIPC   C4A11288  22.661  25.945   4.975 -0.0261  0.0273 -0.1031
    1DIPC   C1B11289  23.259  25.244   5.933  0.0106  0.1180 -0.1470
    1DIPC   D2B11290  23.397  25.384   5.601 -0.0793  0.2267  0.1499
    1DIPC   D3B11291  23.579  25.744   5.319  0.2068 -0.0818  0.0501
    1DIPC   C4B11292  23.606  25.673   4.859  0.3018 -0.2068 -0.0645
    1DIPC   NC311293   2.052  18.316   5.792 -0.0467  0.4522 -0.1561
    1DIPC   PO411294   2.303  18.417   5.449  0.4035  0.1427  0.0157
    1DIPC   GL111295   2.407  18.277   5.117  0.0526  0.1794 -0.0043
    1DIPC   GL211296   2.357  17.918   4.943 -0.0870 -0.1359 -0.0995
    1DIPC   C1A11297   2.482  18.274   4.625 -0.0032  0.1692 -0.3131
    1DIPC   D2A11298   2.499  18.194   4.170  0.0834 -0.1452 -0.2454
    1DIPC   D3A11299   2.662  17.780   4.018  0.1652 -0.1905 -0.2711
    1DIPC   C4A11300   2.693  17.307   3.991  0.1748 -0.0672 -0.2305
    1DIPC   C1B11301   2.446  17.770   4.504  0.0799  0.0076 -0.1351
    1DIPC   D2B11302   2.317  17.452   4.266 -0.0498  0.1839  0.1225
    1DIPC   D3B11303   2.135  17.782   3.925  0.2892  0.1443 -0.2633
    1DIPC   C4B11304   2.233  18.203   3.743 -0.0401  0.2179 -0.1777
    1DIPC   NC311305  14.149  29.126   7.109  0.0314 -0.2117  0.2364
    1DIPC   PO411306  13.939  28.663   7.097 -0.0381  0.0388  0.2092
    1DIPC   GL111307  13.846  28.758   6.728  0.0665  0.2497  0.0972
    1DIPC   GL211308  13.607  28.589   6.600  0.1815  0.1132  0.0013
    1DIPC   C1A11309  14.015  28.749   6.242 -0.0126  0.1137  0.1924
    1DIPC   D2A11310  14.204  28.721   5.869  0.0607  0.0736 -0.3144
    1DIPC   D3A11311  14.003  29.092   5.484 -0.1763  0.0807  0.2632
    1DIPC   C4A11312  13.798  29.262   5.035  0.0479 -0.1175 -0.2622
    1DIPC   C1B11313  13.545  28.514   6.089 -0.2298  0.1569 -0.1809
    1DIPC   D2B11314  13.474  28.146   5.896  0.0755  0.4017  0.1454
    1DIPC   D3B11315  13.479  28.488   5.560 -0.0074 -0.0279 -0.2495
    1DIPC   C4B11316  13.650  28.754   5.511 -0.0808  0.0042  0.0628
    1DIPC   NC311317   6.901  20.808   5.653 -0.0933 -0.2862  0.0207
    1DIPC   PO411318   6.958  20.441   5.723 -0.0879  0.1408  0.2133
    1DIPC   GL111319   7.200  20.475   5.343 -0.2741 -0.3607  0.0959
    1DIPC   GL211320   7.375  20.745   5.380 -0.0255  0.2133 -0.0817
    1DIPC   C1A11321   7.431  20.373   5.041  0.0319  0.3010 -0.3713
    1DIPC   D2A11322   7.527  20.417   4.561  0.1247  0.2922 -0.0772
    1DIPC   D3A11323   7.931  20.630   4.439  0.2288  0.2216  0.2078
    1DIPC   C4A11324   7.838  20.561   3.999 -0.2640  0.1554  0.1870
    1DIPC   C1B11325   7.467  20.965   4.908 -0.1328 -0.2782 -0.1371
    1DIPC   D2B11326   7.477  20.890   4.514  0.2376  0.0036 -0.1137
    1DIPC   D3B11327   7.433  20.735   4.122  0.0781 -0.2730 -0.1329
    1DIPC   C4B11328   7.367  20.716   3.742  0.0772  0.1179 -0.1839
    1DIPC   NC311329   4.563  22.912   5.757  0.0379 -0.2256  0.0126
    1DIPC   PO411330   4.732  22.670   5.406 -0.0502 -0.0734 -0.2268
    1DIPC   GL111331   4.910  22.736   5.014 -0.0234  0.2887 -0.0116
    1DIPC   GL211332   5.133  22.432   4.905 -0.2648 -0.4705 -0.1007
    1DIPC   C1A11333   4.860  22.818   4.582 -0.0428  0.0795 -0.0694
    1DIPC   D2A11334   4.855  23.114   4.294 -0.1144 -0.2580  0.3504
    1DIPC   D3A11335   4.589  23.320   4.077  0.1109 -0.0477 -0.1406
    1DIPC   C4A11336   4.688  23.271   3.713 -0.0470  0.1800  0.0721
    1DIPC   C1B11337   5.153  22.431   4.448 -0.0026  0.1543 -0.0857
    1DIPC   D2B11338   5.351  22.150   4.160  0.5236 -0.2890  0.0482
    1DIPC   D3B11339   5.021  22.286   3.818  0.1527  0.1283  0.2338
    1DIPC   C4B11340   5.112  22.625   3.517  0.0888 -0.2052  0.3300
    1DIPC   NC311341  15.670   2.169   7.308 -0.1845 -0.2331  0.1418
    1DIPC   PO411342  15.849   1.894   6.895  0.1445 -0.1422 -0.0002
    1DIPC   GL111343  15.723   1.614   6.544 -0.2358  0.0213 -0.1729
    1DIPC   GL211344  15.823   1.785   6.277  0.0453  0.1793  0.2259
    1DIPC   C1A11345  15.881   1.313   6.238  0.0827  0.0601  0.1647
    1DIPC   D2A11346  15.700   1.356   5.779  0.0978 -0.4819  0.1174
    1DIPC   D3A11347  15.973   1.408   5.538 -0.2263 -0.0889  0.0572
    1DIPC   C4A11348  16.415   1.211   5.492  0.1412 -0.2316 -0.2928
    1DIPC   C1B11349  15.472   1.731   6.012 -0.0652  0.0189  0.0231
    1DIPC   D2B11350  15.418   2.018   5.717 -0.0654 -0.0800  0.1334
    1DIPC   D3B11351  15.851   1.870   5.631  0.0205  0.3842 -0.2408
    1DIPC   C4B11352  15.798   1.835   5.246  0.0083  0.0128 -0.1429
    1DIPC   NC311353  11.205   3.862   7.570 -0.0588 -0.3337  0.0426
    1DIPC   PO411354  11.266   4.353   7.374  0.0900 -0.2011 -0.2393
    1DIPC   GL111355  11.277   4.390   6.926  0.1505  0.0032  0.1595
    1DIPC   GL211356  11.114   4.667   6.816 -0.0843  0.2707 -0.1926
    1DIPC   C1A11357  11.036   4.128   6.601 -0.0853  0.0685 -0.1042
    1DIPC   D2A11358  10.693   3.924   6.479  0.3939 -0.0689 -0.0344
    1DIPC   D3A11359  10.946   4.024   6.116 -0.1787 -0.1057  0.1716
    1DIPC   C4A11360  11.035   4.281   5.836 -0.1018  0.1362 -0.0559
    1DIPC   C1B11361  11.164   4.517   6.364  0.2323 -0.1596 -0.3513
    1DIPC   D2B11362  11.378   4.194   6.239  0.1879 -0.1073 -0.1900
    1DIPC   D3B11363  11.407   3.935   5.933 -0.3302 -0.0384  0.1799
    1DIPC   C4B11364  11.453   3.431   5.771  0.0014 -0.2303 -0.0427
    1DIPC   NC311365   4.157   1.326   7.780 -0.0246 -0.0239 -0.0282
    1DIPC   PO411366   4.247   1.209   7.396 -0.1647 -0.0823 -0.3942
    1DIPC   GL111367   4.279   1.130   6.980 -0.0083 -0.0480 -0.0660
    1DIPC   GL211368   4.116   0.904   6.738 -0.1435  0.0624 -0.3013
    1DIPC   C1A11369   4.523   1.185   6.624 -0.0989  0.4437  0.0067
    1DIPC   D2A11370   4.812   0.905   6.453 -0.0541 -0.0709 -0.0685
    1DIPC   D3A11371   4.424   0.959   6.199 -0.0986  0.0502 -0.0702
    1DIPC   C4A11372   4.414   0.857   5.822 -0.2749  0.0104  0.0455
    1DIPC   C1B11373   3.989   0.758   6.346  0.1904  0.1421  0.1434
    1DIPC   D2B11374   4.036   0.591   6.053  0.1443  0.1582  0.0289
    1DIPC   D3B11375   3.968   0.995   5.855  0.0746  0.1492  0.0114
    1DIPC   C4B11376   3.586   1.104   5.570 -0.0662  0.1840 -0.1521
    1DIPC   NC311377   5.282  26.958   7.166  0.0591 -0.1245  0.1041
    1DIPC   PO411378   5.266  26.744   6.732  0.5356  0.3411  0.0125
    1DIPC   GL111379   5.584  26.729   6.206  0.0260  0.1153 -0.1502
    1DIPC   GL211380   5.776  26.470   6.075  0.0459  0.1993  0.0773
    1DIPC   C1A11381   5.495  26.842   5.893 -0.2248  0.1046  0.0259
    1DIPC   D2A11382   5.550  26.889   5.572  0.2127 -0.0577  0.0856
    1DIPC   D3A11383   5.839  26.868   5.164 -0.1738 -0.1490  0.1569
    1DIPC   C4A11384   5.744  27.053   4.807 -0.1228  0.4351 -0.0959
    1DIPC   C1B11385   5.905  26.526   5.604  0.2735 -0.0101  0.4183
    1DIPC   D2B11386   5.906  26.394   5.195 -0.3190 -0.1658  0.0114
    1DIPC   D3B11387   5.756  26.587   4.779 -0.1854 -0.2306  0.2159
    1DIPC   C4B11388   5.970  26.674   4.386  0.2466 -0.2219 -0.2585
    1DIPC   NC311389  28.437   3.292   6.251  0.2742 -0.1008 -0.1810
    1DIPC   PO411390  28.293   3.121   5.843 -0.1048  0.3293  0.1473
    1DIPC   GL111391  28.500   3.048   5.556  0.0627 -0.0097  0.3673
    1DIPC   GL211392  28.770   2.765   5.633  0.0910  0.1971 -0.1216
    1DIPC   C1A11393  28.573   2.803   5.121  0.0693  0.0994 -0.1250
    1DIPC   D2A11394  28.435   2.598   4.748  0.1434 -0.0875 -0.1067
    1DIPC   D3A11395  28.192   2.876   4.430 -0.0251 -0.0412 -0.0006
    1DIPC   C4A11396  28.420   3.173   4.319  0.3009  0.3266 -0.1689
    1DIPC   C1B11397  29.011   2.521   5.295  0.3753 -0.1316  0.2490
    1DIPC   D2B11398  29.059   2.164   4.859 -0.0356  0.1591 -0.0211
    1DIPC   D3B11399  28.968   2.190   4.458  0.0838  0.0070 -0.1478
    1DIPC   C4B11400  28.607   2.041   4.186 -0.1622 -0.1389  0.2633
    1DIPC   NC311401  26.758   2.198   6.607 -0.0530 -0.1698 -0.0410
    1DIPC   PO411402  26.989   2.234   6.282 -0.0568 -0.2440  0.1153
    1DIPC   GL111403  26.784   2.226   5.856 -0.2958 -0.0033 -0.2389
    1DIPC   GL211404  27.062   2.296   5.624 -0.1706  0.1459  0.1891
    1DIPC   C1A11405  26.634   2.528   5.600  0.0648  0.1504  0.1740
    1DIPC   D2A11406  26.788   3.012   5.423  0.0804  0.2510  0.0825
    1DIPC   D3A11407  26.461   3.074   5.129  0.1951  0.2046 -0.1335
    1DIPC   C4A11408  26.545   3.039   4.645 -0.0443  0.1830 -0.0537
    1DIPC   C1B11409  26.873   2.159   5.295  0.2563 -0.2750  0.3464
    1DIPC   D2B11410  26.803   2.183   4.912  0.0606  0.0032 -0.1056
    1DIPC   D3B11411  27.053   2.368   4.507 -0.0390 -0.0955  0.1941
    1DIPC   C4B11412  27.003   2.770   4.481 -0.0759  0.1303 -0.1238
    1DIPC   NC311413   2.976  13.784   5.941 -0.1226 -0.1421 -0.0459
    1DIPC   PO411414   2.648  13.972   5.663  0.0874 -0.1657  0.2321
    1DIPC   GL111415   2.262  13.866   5.412 -0.1882 -0.0070  0.1321
    1DIPC   GL211416   2.463  13.938   5.182 -0.2408 -0.0985  0.0353
    1DIPC   C1A11417   1.902  13.703   5.214  0.3320  0.0372 -0.1065
    1DIPC   D2A11418   1.501  13.766   5.125  0.0272 -0.1086 -0.1886
    1DIPC   D3A11419   1.593  13.653   4.775 -0.0163 -0.1037 -0.0324
    1DIPC   C4A11420   1.985  13.445   4.747  0.4322 -0.0234 -0.2300
    1DIPC   C1B11421   2.391  13.572   4.972  0.0989  0.1325 -0.1389
    1DIPC   D2B11422   2.500  13.454   4.612 -0.2391 -0.0875 -0.1204
    1DIPC   D3B11423   2.473  13.619   4.181 -0.0675  0.2705  0.0299
    1DIPC   C4B11424   2.646  13.612   3.827  0.0213  0.1648  0.0138
    1DIPC   NC311425  10.793  11.763   7.403  0.1050 -0.1514 -0.1010
    1DIPC   PO411426  11.110  11.397   7.537 -0.2499  0.3109  0.1878
    1DIPC   GL111427  10.931  11.220   7.285 -0.2979 -0.1139  0.2372
    1DIPC   GL211428  10.833  11.410   7.054  0.0997  0.3671  0.0200
    1DIPC   C1A11429  10.934  10.952   6.905 -0.2702 -0.0051  0.0141
    1DIPC   D2A11430  10.730  10.818   6.510  0.1577 -0.0952 -0.1190
    1DIPC   D3A11431  10.687  11.223   6.421 -0.1035  0.0124  0.1502
    1DIPC   C4A11432  10.501  11.311   6.042 -0.1366 -0.0591 -0.3348
    1DIPC   C1B11433  10.966  11.579   6.758 -0.1990  0.0884 -0.3894
    1DIPC   D2B11434  10.934  11.628   6.340  0.2148  0.1628 -0.0273
    1DIPC   D3B11435  10.632  11.822   6.038  0.0894 -0.1224  0.1404
    1DIPC   C4B11436  10.443  11.669   5.600  0.0992  0.0884  0.0281
    1DIPC   NC311437  12.884  22.666   6.413  0.5181  0.0514 -0.2549
    1DIPC   PO411438  13.290  22.648   6.457 -0.2144  0.0663  0.2048
    1DIPC   GL111439  13.616  22.641   6.200  0.0042  0.0040 -0.3499
    1DIPC   GL211440  13.803  22.818   6.210  0.2001  0.0804 -0.0790
    1DIPC   C1A11441  13.536  22.389   5.849 -0.1065 -0.4468 -0.1510
    1DIPC   D2A11442  13.481  22.012   5.729 -0.2691  0.2069  0.2916
    1DIPC   D3A11443  13.097  22.233   5.614 -0.1969 -0.3740 -0.1128
    1DIPC   C4A11444  12.870  22.323   5.156  0.0193 -0.3368 -0.0068
    1DIPC   C1B11445  13.823  22.818   5.679  0.0998  0.2152  0.1563
    1DIPC   D2B11446  13.893  22.655   5.259  0.1669  0.0723  0.1336
    1DIPC   D3B11447  13.716  22.276   5.395 -0.0881 -0.3134 -0.0085
    1DIPC   C4B11448  13.454  22.052   5.149  0.3282 -0.0624  0.0871
    1DIPC   NC311449  17.825  25.055   7.220  0.0841  0.0128 -0.1470
    1DIPC   PO411450  17.827  24.933   6.726 -0.1171  0.1040 -0.2141
    1DIPC   GL111451  17.958  25.010   6.398  0.2347  0.2735 -0.2185
    1DIPC   GL211452  18.033  24.696   6.291  0.0405 -0.3349  0.3851
    1DIPC   C1A11453  17.994  25.315   6.035 -0.2184  0.1126 -0.2388
    1DIPC   D2A11454  17.994  25.522   5.651 -0.1742 -0.1417 -0.0257
    1DIPC   D3A11455  17.952  25.652   5.215 -0.0927  0.0449 -0.0218
    1DIPC   C4A11456  17.912  26.042   5.013  0.0599  0.0677  0.3050
    1DIPC   C1B11457  17.835  24.689   5.893 -0.2371  0.1287  0.0263
    1DIPC   D2B11458  18.127  24.611   5.517 -0.2275 -0.3655  0.0834
    1DIPC   D3B11459  17.922  25.019   5.502 -0.0784  0.0370 -0.0495
    1DIPC   C4B11460  17.603  25.256   5.268  0.0575  0.0585 -0.1304
    1DIPC   NC311461  27.053  20.187   6.537  0.1054  0.2533  0.1244
    1DIPC   PO411462  27.016  20.149   6.072  0.1280  0.1000 -0.0882
    1DIPC   GL111463  26.858  20.139   5.594  0.0222 -0.2727 -0.0852
    1DIPC   GL211464  26.974  19.950   5.308  0.0226  0.1335 -0.0010
    1DIPC   C1A11465  26.473  19.990   5.264 -0.2308 -0.1319 -0.1743
    1DIPC   D2A11466  26.231  19.708   4.946  0.1336 -0.0478  0.1685
    1DIPC   D3A11467  26.368  19.442   4.760 -0.0772 -0.3286  0.0322
    1DIPC   C4A11468  26.495  19.225   4.370 -0.0982  0.0012 -0.0787
    1DIPC   C1B11469  26.995  20.045   4.843  0.0626  0.1426 -0.4840
    1DIPC   D2B11470  26.827  20.059   4.442  0.1983 -0.1644  0.0344
    1DIPC   D3B11471  26.472  20.100   4.697 -0.3586 -0.0554  0.2367
    1DIPC   C4B11472  26.047  19.936   4.540  0.2901 -0.1666 -0.0927
    1DIPC   NC311473  26.147   8.153   6.253  0.0869  0.0987  0.1702
    1DIPC   PO411474  26.054   7.775   6.331 -0.3362 -0.0668 -0.0883
    1DIPC   GL111475  26.121   7.887   5.828 -0.1109  0.0119  0.0356
    1DIPC   GL211476  26.367   8.177   5.702 -0.1914  0.0403 -0.0034
    1DIPC   C1A11477  25.832   7.815   5.421  0.3280  0.3064  0.1059
    1DIPC   D2A11478  25.590   7.444   5.200  0.0888  0.2166 -0.1804
    1DIPC   D3A11479  25.502   7.603   4.833  0.1158 -0.0838 -0.0191
    1DIPC   C4A11480  25.386   8.083   4.811  0.0504 -0.1669  0.1878
    1DIPC   C1B11481  26.297   8.039   5.339 -0.0227  0.0193  0.0480
    1DIPC   D2B11482  26.279   8.108   4.940 -0.1315  0.0399 -0.1611
    1DIPC   D3B11483  25.959   8.017   4.693  0.1279  0.0655 -0.1673
    1DIPC   C4B11484  25.954   7.692   4.295 -0.0370 -0.0052 -0.0595
    1DIPC   NC311485   8.031   5.554   7.653  0.0400  0.2058 -0.1483
    1DIPC   PO411486   8.182   5.561   7.161  0.0505 -0.1693 -0.1714
    1DIPC   GL111487   7.974   5.806   6.818 -0.4307  0.1522  0.1597
    1DIPC   GL211488   8.138   5.836   6.564  0.0328  0.2605 -0.2576
    1DIPC   C1A11489   7.724   5.664   6.393 -0.0500 -0.1722  0.4838
    1DIPC   D2A11490   7.470   5.742   6.113 -0.1457 -0.0913 -0.0334
    1DIPC   D3A11491   7.056   5.869   6.037 -0.0011 -0.0992  0.1580
    1DIPC   C4A11492   6.749   5.704   5.731 -0.1446  0.1463  0.1940
    1DIPC   C1B11493   8.420   6.040   6.371  0.2496  0.1007 -0.0486
    1DIPC   D2B11494   8.609   6.440   6.249 -0.1605  0.1148 -0.1905
    1DIPC   D3B11495   8.364   6.307   5.924 -0.0200 -0.2695  0.0422
    1DIPC   C4B11496   8.457   6.012   5.811 -0.2250  0.1789 -0.1331
    1DIPC   NC311497   5.235  26.364   6.206 -0.1270 -0.2066 -0.5235
    1DIPC   PO411498   4.859  26.172   6.115 -0.1299  0.1899  0.2527
    1DIPC   GL111499   4.764  26.240   5.663 -0.0311  0.0578  0.0679
    1DIPC   GL211500   4.910  26.091   5.492  0.1927 -0.0368 -0.0846
    1DIPC   C1A11501   4.685  26.480   5.217  0.2055 -0.3543 -0.0685
    1DIPC   D2A11502   4.293  26.515   5.203 -0.1200  0.0560 -0.0298
    1DIPC   D3A11503   4.240  26.682   4.774  0.0448 -0.0743 -0.2628
    1DIPC   C4A11504   4.163  26.390   4.427  0.1808  0.0224 -0.0687
    1DIPC   C1B11505   4.551  25.947   5.273  0.1838 -0.1490 -0.5273
    1DIPC   D2B11506   4.288  26.126   4.887 -0.3679 -0.0592  0.2539
    1DIPC   D3B11507   3.977  25.874   4.775 -0.0015 -0.0853  0.3301
    1DIPC   C4B11508   3.676  26.181   4.528  0.0720 -0.0363  0.3239
    1DIPC   NC311509  25.679   5.027   6.440  0.1417  0.1148 -0.1304
    1DIPC   PO411510  25.937   5.395   6.380  0.0916 -0.2321 -0.4215
    1DIPC   GL111511  25.999   5.478   5.920  0.2440 -0.1201 -0.4482
    1DIPC   GL211512  25.791   5.185   5.810  0.2522  0.0048  0.0108
    1DIPC   C1A11513  26.151   5.439   5.497  0.0890  0.0152  0.2554
    1DIPC   D2A11514  25.959   5.616   5.119  0.0389 -0.0573  0.0400
    1DIPC   D3A11515  25.622   5.518   4.817 -0.0012  0.1235  0.0672
    1DIPC   C4A11516  25.419   5.716   4.540 -0.2524  0.1863 -0.3282
    1DIPC   C1B11517  25.771   5.225   5.294  0.4398  0.2743  0.1349
    1DIPC   D2B11518  26.054   5.021   5.084  0.1964  0.1854 -0.0373
    1DIPC   D3B11519  26.414   4.892   4.854  0.0163 -0.0990  0.1006
    1DIPC   C4B11520  26.272   4.846   4.497 -0.3744 -0.0787 -0.0373
    1DIPC   NC311521  22.705  16.190   5.916  0.0543  0.2820  0.3313
    1DIPC   PO411522  23.087  16.212   5.727  0.2967  0.1200  0.2795
    1DIPC   GL111523  22.797  16.217   5.381  0.0660 -0.0806  0.0368
    1DIPC   GL211524  23.033  16.315   5.206 -0.0278  0.0921 -0.0934
    1DIPC   C1A11525  22.539  16.289   5.032 -0.0810  0.1801  0.0842
    1DIPC   D2A11526  22.330  16.422   4.714  0.1898 -0.1579  0.1812
    1DIPC   D3A11527  22.652  16.387   4.421 -0.2667 -0.1114 -0.0978
    1DIPC   C4A11528  22.633  16.159   4.029 -0.1331 -0.2238  0.0982
    1DIPC   C1B11529  23.046  16.330   4.712 -0.2330 -0.1203  0.0005
    1DIPC   D2B11530  23.101  16.213   4.257  0.1124  0.1176  0.2000
    1DIPC   D3B11531  23.339  16.390   3.986 -0.3189 -0.3144 -0.1798
    1DIPC   C4B11532  23.597  16.161   3.836 -0.1518 -0.0136 -0.1384
    1DIPC   NC311533  20.105  24.425   6.717 -0.4484 -0.1472  0.2273
    1DIPC   PO411534  20.562  24.669   6.856  0.0540 -0.1282 -0.0022
    1DIPC   GL111535  20.530  24.502   6.426  0.0264  0.0935  0.0077
    1DIPC   GL211536  20.348  24.641   6.178 -0.1720  0.1814 -0.1375
    1DIPC   C1A11537  20.741  24.199   6.204  0.0593 -0.1256 -0.0240
    1DIPC   D2A11538  20.873  23.846   5.938  0.0600 -0.1479 -0.0023
    1DIPC   D3A11539  20.579  23.982   5.642  0.1114  0.0247 -0.0033
    1DIPC   C4A11540  20.272  23.790   5.609  0.0817  0.0965  0.1953
    1DIPC   C1B11541  20.647  24.729   5.972 -0.0740 -0.0484 -0.2324
    1DIPC   D2B11542  20.932  24.863   5.639 -0.1443 -0.2261 -0.0890
    1DIPC   D3B11543  20.878  25.255   5.416 -0.1206 -0.2655  0.0052
    1DIPC   C4B11544  21.203  25.327   5.198  0.2923  0.0379 -0.0541
    1DIPC   NC311545   4.430   6.882   7.255 -0.1039  0.0464 -0.1761
    1DIPC   PO411546   4.003   7.022   7.076 -0.0931 -0.1238  0.1857
    1DIPC   GL111547   4.192   7.010   6.728 -0.1796 -0.3064 -0.2574
    1DIPC   GL211548   4.013   6.839   6.480 -0.2451  0.0385  0.1674
    1DIPC   C1A11549   4.560   6.993   6.493  0.1223 -0.0537  0.0713
    1DIPC   D2A11550   4.981   7.115   6.469 -0.1724 -0.1782 -0.1869
    1DIPC   D3A11551   4.767   7.176   6.059 -0.0513  0.4181 -0.0757
    1DIPC   C4A11552   4.344   6.914   5.987 -0.0758  0.0158 -0.1382
    1DIPC   C1B11553   3.877   6.736   6.048 -0.2299  0.1985  0.0609
    1DIPC   D2B11554   3.634   6.471   5.708 -0.1063  0.2673  0.3495
    1DIPC   D3B11555   3.937   6.703   5.507 -0.0341  0.0955  0.3693
    1DIPC   C4B11556   4.146   6.964   5.182  0.2126  0.2191 -0.0204
    1DIPC   NC311557   8.025   7.318   7.100  0.2918 -0.2425  0.0168
    1DIPC   PO411558   8.458   7.097   7.068 -0.2377  0.0064  0.1423
    1DIPC   GL111559   8.393   7.321   6.694 -0.0620 -0.1631 -0.0128
    1DIPC   GL211560   8.142   7.363   6.592  0.0218  0.1444  0.0393
    1DIPC   C1A11561   8.567   7.433   6.300 -0.3075 -0.1395 -0.0388
    1DIPC   D2A11562   8.799   7.540   6.007  0.2407 -0.1086  0.0010
    1DIPC   D3A11563   8.994   7.293   5.628 -0.0971 -0.0941  0.1454
    1DIPC   C4A11564   8.928   6.997   5.356  0.1702  0.0135 -0.3954
    1DIPC   C1B11565   8.009   7.066   6.321  0.2154 -0.1262  0.1773
    1DIPC   D2B11566   8.108   6.732   5.930 -0.2247 -0.0630  0.0499
    1DIPC   D3B11567   7.756   7.044   5.777  0.2302  0.2727  0.0909
    1DIPC   C4B11568   7.558   7.073   5.313 -0.1434  0.0161 -0.2344
    1DIPC   NC311569   5.889  16.942   6.370  0.0759  0.1548 -0.0539
    1DIPC   PO411570   6.035  17.264   6.089  0.0168 -0.1237  0.0492
    1DIPC   GL111571   6.132  17.316   5.690  0.2772  0.0625 -0.0648
    1DIPC   GL211572   5.909  17.297   5.495 -0.2839 -0.2739 -0.0336
    1DIPC   C1A11573   6.488  17.158   5.384  0.1058  0.1673 -0.1876
    1DIPC   D2A11574   6.478  17.082   5.054  0.0480  0.0676  0.2543
    1DIPC   D3A11575   7.003  17.278   4.997 -0.0970  0.2426 -0.0569
    1DIPC   C4A11576   7.255  17.541   4.788  0.0157  0.2788  0.0204
    1DIPC   C1B11577   6.024  17.218   5.107  0.0129  0.1496 -0.0136
    1DIPC   D2B11578   6.145  16.968   4.722  0.2100 -0.1567  0.1660
    1DIPC   D3B11579   6.364  17.222   4.356  0.1426  0.4958  0.0160
    1DIPC   C4B11580   6.737  17.158   4.128 -0.2632  0.0931  0.0012
    1DIPC   NC311581  18.235   1.436   7.045  0.2887 -0.0178  0.3689
    1DIPC   PO411582  17.987   1.523   6.711 -0.4274 -0.1144 -0.1938
    1DIPC   GL111583  18.182   1.470   6.274  0.0876 -0.2163  0.3054
    1DIPC   GL211584  18.295   1.230   6.154  0.0017 -0.1204  0.0386
    1DIPC   C1A11585  18.508   1.588   5.874  0.2562 -0.2820  0.0391
    1DIPC   D2A11586  18.783   1.865   5.800 -0.2317 -0.0522 -0.2406
    1DIPC   D3A11587  18.999   1.999   5.457  0.1019  0.0702  0.2563
    1DIPC   C4A11588  19.323   1.823   5.167  0.1012 -0.0407  0.0262
    1DIPC   C1B11589  18.788   1.271   6.130  0.0583  0.0607 -0.1166
    1DIPC   D2B11590  19.236   1.293   6.198  0.2229  0.1624 -0.1403
    1DIPC   D3B11591  19.095   1.740   6.268  0.0338 -0.2038  0.0965
    1DIPC   C4B11592  18.656   1.770   6.411  0.1595  0.1865  0.7126
    1DIPC   NC311593  22.072  20.732   6.085  0.0047 -0.0868 -0.1745
    1DIPC   PO411594  21.901  21.144   6.023 -0.1727  0.0340  0.1261
    1DIPC   GL111595  21.758  21.036   5.695  0.0333 -0.3668  0.3976
    1DIPC   GL211596  21.866  20.673   5.549 -0.0593 -0.1886  0.0529
    1DIPC   C1A11597  21.519  21.118   5.329  0.1459 -0.0364  0.1386
    1DIPC   D2A11598  21.599  20.944   4.952 -0.0244  0.2352  0.1222
    1DIPC   D3A11599  21.775  21.173   4.572  0.1288  0.1252 -0.1308
    1DIPC   C4A11600  21.757  21.556   4.356 -0.0988  0.1697 -0.2967
    1DIPC   C1B11601  21.529  20.611   5.288 -0.1902 -0.0604  0.0910
    1DIPC   D2B11602  21.439  20.475   4.782 -0.0848  0.2903  0.0321
    1DIPC   D3B11603  21.660  20.618   4.416 -0.0704  0.1959  0.1050
    1DIPC   C4B11604  21.479  20.971   4.139  0.4065  0.0254 -0.2660
    1DIPC   NC311605   8.744   1.533   6.684 -0.0338  0.2533 -0.0741
    1DIPC   PO411606   8.432   1.888   6.796 -0.0376  0.1150 -0.0252
    1DIPC   GL111607   8.484   1.775   6.333 -0.0554 -0.1208  0.1751
    1DIPC   GL211608   8.737   1.756   6.229 -0.0947  0.0142  0.0844
    1DIPC   C1A11609   8.321   1.793   5.893 -0.0272  0.1769  0.2032
    1DIPC   D2A11610   8.246   1.686   5.522  0.3022 -0.2216  0.1691
    1DIPC   D3A11611   8.361   1.876   5.194  0.2096  0.0403  0.3263
    1DIPC   C4A11612   8.647   2.176   5.210  0.2292  0.1216 -0.2399
    1DIPC   C1B11613   8.813   1.910   5.805  0.1027 -0.0921 -0.2809
    1DIPC   D2B11614   8.731   1.674   5.505  0.0407  0.0696 -0.1420
    1DIPC   D3B11615   8.550   1.294   5.381 -0.0470  0.4480  0.0139
    1DIPC   C4B11616   8.539   0.915   5.678  0.1268 -0.0108 -0.1044
    1DIPC   NC311617   0.992  25.213   6.428 -0.2337  0.2500  0.2969
    1DIPC   PO411618   1.386  25.436   6.231  0.1806  0.3299 -0.0708
    1DIPC   GL111619   1.351  25.600   5.850 -0.3247  0.0464  0.0286
    1DIPC   GL211620   1.762  25.467   5.822  0.1325 -0.0786 -0.4389
    1DIPC   C1A11621   1.085  25.682   5.492  0.0913  0.2691  0.3812
    1DIPC   D2A11622   0.716  25.779   5.388  0.0734 -0.0100  0.1188
    1DIPC   D3A11623   0.903  25.782   5.044 -0.1509  0.1067  0.1644
    1DIPC   C4A11624   1.298  26.043   5.062 -0.1781 -0.0311  0.3220
    1DIPC   C1B11625   1.959  25.460   5.417 -0.0223 -0.2214  0.0789
    1DIPC   D2B11626   1.781  25.175   5.094 -0.2528 -0.0533  0.0973
    1DIPC   D3B11627   1.931  25.391   4.736  0.2201  0.3678  0.0412
    1DIPC   C4B11628   2.404  25.464   4.565  0.2106 -0.1645 -0.1190
    1DIPC   NC311629   3.058   4.629   6.436  0.0278 -0.0161 -0.2986
    1DIPC   PO411630   2.820   5.060   6.526  0.0388 -0.0004 -0.0828
    1DIPC   GL111631   2.938   4.982   6.114 -0.3162 -0.1441  0.3760
    1DIPC   GL211632   2.931   4.631   5.981 -0.1236  0.0688  0.1441
    1DIPC   C1A11633   3.085   4.945   5.636  0.0535 -0.2227 -0.0327
    1DIPC   D2A11634   3.226   5.071   5.233  0.2662 -0.1056  0.1995
    1DIPC   D3A11635   3.017   4.693   5.059 -0.0557  0.1157 -0.2987
    1DIPC   C4A11636   2.628   4.445   4.910 -0.0229 -0.1503  0.0676
    1DIPC   C1B11637   2.782   4.598   5.522  0.0567 -0.3077 -0.0088
    1DIPC   D2B11638   2.523   4.823   5.240  0.0658 -0.5093 -0.3459
    1DIPC   D3B11639   2.101   4.837   4.994  0.0995 -0.0626  0.3816
    1DIPC   C4B11640   2.108   4.357   4.898  0.2723 -0.3114 -0.3988
    1DIPC   NC311641  30.128  18.603   5.805 -0.3155 -0.1728  0.1762
    1DIPC   PO411642  30.096  19.079   5.667 -0.0663  0.2599 -0.1130
    1DIPC   GL111643  30.157  19.109   5.231 -0.2693 -0.1516 -0.3880
    1DIPC   GL211644  30.302  18.838   5.153 -0.0793  0.1568  0.2049
    1DIPC   C1A11645  30.022  19.491   4.971 -0.1745  0.1487 -0.0126
    1DIPC   D2A11646  30.124  20.030   4.919 -0.1066  0.1358 -0.1074
    1DIPC   D3A11647  30.567  19.837   4.970 -0.0333  0.1098  0.0702
    1DIPC   C4A11648  30.519  19.478   4.992  0.0507  0.2087 -0.1379
    1DIPC   C1B11649  30.011  18.788   4.771 -0.1824 -0.0284 -0.0798
    1DIPC   D2B11650  29.879  19.059   4.469  0.1709 -0.2775  0.2850
    1DIPC   D3B11651  30.203  19.075   4.097  0.0571 -0.0008  0.0244
    1DIPC   C4B11652  30.517  18.757   3.955 -0.0395 -0.2429 -0.0632
    1DIPC   NC311653  12.897   4.279   7.097 -0.0091  0.3123 -0.2015
    1DIPC   PO411654  12.909   4.701   7.247  0.1186  0.2307  0.1538
    1DIPC   GL111655  13.100   4.786   6.819 -0.0634  0.1139 -0.0159
    1DIPC   GL211656  13.439   4.943   6.810 -0.0893 -0.0515 -0.1397
    1DIPC   C1A11657  13.076   4.778   6.400  0.0729 -0.0519  0.2304
    1DIPC   D2A11658  12.984   4.894   5.949  0.3218  0.2136 -0.1517
    1DIPC   D3A11659  13.074   5.357   5.824  0.3194 -0.2241 -0.0722
    1DIPC   C4A11660  13.320   5.614   5.724  0.0948 -0.1598 -0.2468
    1DIPC   C1B11661  13.563   5.281   6.503  0.0142  0.2118  0.0973
    1DIPC   D2B11662  13.650   5.434   6.056 -0.0646  0.2254 -0.0456
    1DIPC   D3B11663  13.843   5.361   5.670 -0.0138 -0.2488  0.2499
    1DIPC   C4B11664  14.335   5.467   5.665  0.1984 -0.4029 -0.3243
    1DIPC   NC311665  26.994  20.965   6.744  0.1920 -0.1445 -0.0418
    1DIPC   PO411666  27.122  21.244   6.356  0.0674 -0.3776 -0.1814
    1DIPC   GL111667  27.381  21.335   5.992  0.1688  0.0815 -0.2481
    1DIPC   GL211668  27.597  21.063   5.898  0.2030  0.4993  0.0745
    1DIPC   C1A11669  27.600  21.573   5.677  0.0408  0.1515 -0.0059
    1DIPC   D2A11670  27.347  21.668   5.306  0.0418  0.6894  0.0009
    1DIPC   D3A11671  27.271  22.037   4.977 -0.4354 -0.0305  0.1338
    1DIPC   C4A11672  27.131  22.572   4.864  0.0057  0.0706  0.0950
    1DIPC   C1B11673  27.485  21.152   5.508 -0.0377 -0.2317 -0.0998
    1DIPC   D2B11674  27.589  21.348   5.049  0.0733  0.0122  0.1837
    1DIPC   D3B11675  28.022  21.445   5.182 -0.0435 -0.2843 -0.1614
    1DIPC   C4B11676  28.387  21.625   5.023 -0.2495  0.2635  0.2311
    1DIPC   NC311677   6.228  28.417   7.266  0.0082 -0.2153  0.0629
    1DIPC   PO411678   6.376  28.213   6.740 -0.0462 -0.1341 -0.0916
    1DIPC   GL111679   6.550  28.070   6.344 -0.2775  0.0690 -0.0699
    1DIPC   GL211680   6.776  28.252   6.192  0.2551 -0.0310  0.1980
    1DIPC   C1A11681   6.438  27.840   5.859  0.0908  0.2108  0.0176
    1DIPC   D2A11682   6.559  27.957   5.381 -0.3326 -0.2200 -0.0711
    1DIPC   D3A11683   6.607  27.411   5.444 -0.2076  0.0021  0.2265
    1DIPC   C4A11684   6.713  27.148   5.065 -0.1251  0.3594  0.3283
    1DIPC   C1B11685   6.749  28.282   5.801 -0.1166 -0.0959  0.0912
    1DIPC   D2B11686   6.862  28.368   5.481 -0.2160  0.0068  0.1827
    1DIPC   D3B11687   6.616  28.736   5.434  0.1005  0.2350 -0.1677
    1DIPC   C4B11688   6.676  29.082   5.089 -0.1060 -0.1458 -0.0881
    1DIPC   NC311689  22.000   0.900   6.355 -0.1445 -0.1581  0.4034
    1DIPC   PO411690  22.483   1.047   6.192 -0.1634 -0.2605  0.1990
    1DIPC   GL111691  22.697   1.034   5.704  0.0730  0.0799 -0.1050
    1DIPC   GL211692  23.063   0.939   5.789  0.0499 -0.1267  0.0226
    1DIPC   C1A11693  22.896   0.937   5.275 -0.0639 -0.1795  0.0371
    1DIPC   D2A11694  23.163   0.790   4.916 -0.1561  0.2012  0.1645
    1DIPC   D3A11695  22.870   1.233   4.621  0.0282 -0.0448  0.0908
    1DIPC   C4A11696  23.039   1.531   4.352  0.0763 -0.3241 -0.0410
    1DIPC   C1B11697  23.178   0.570   5.662  0.0917  0.0061 -0.1516
    1DIPC   D2B11698  23.132   0.325   5.337  0.0747 -0.0732  0.0005
    1DIPC   D3B11699  23.494   0.555   5.173  0.0119  0.4005  0.3312
    1DIPC   C4B11700  23.855   0.334   4.958  0.0519  0.0743 -0.2616
    1DIPC   NC311701   4.333  12.150   6.561 -0.1705  0.0149 -0.2836
    1DIPC   PO411702   4.950  12.268   6.438 -0.2023  0.0058  0.0267
    1DIPC   GL111703   4.835  12.322   6.045  0.0742 -0.0524  0.0017
    1DIPC   GL211704   5.119  12.327   5.837  0.2588 -0.0586 -0.3390
    1DIPC   C1A11705   4.715  12.545   5.655 -0.0500  0.0374 -0.0151
    1DIPC   D2A11706   4.547  12.767   5.381  0.0660  0.0788  0.6752
    1DIPC   D3A11707   4.163  12.984   5.497  0.1337  0.1578 -0.1391
    1DIPC   C4A11708   3.660  12.906   5.266 -0.3492  0.2879 -0.3755
    1DIPC   C1B11709   4.763  12.064   5.574 -0.0231  0.0420 -0.1247
    1DIPC   D2B11710   4.536  11.660   5.782  0.2219  0.0552  0.0671
    1DIPC   D3B11711   4.670  11.353   5.406 -0.1288  0.1689  0.1615
    1DIPC   C4B11712   4.904  11.577   5.171 -0.2224 -0.2737  0.0741
    1DIPC   NC311713   3.833  10.390   6.314 -0.0368  0.0470 -0.2691
    1DIPC   PO411714   3.469   9.985   6.399 -0.0774 -0.0614  0.1083
    1DIPC   GL111715   3.630   9.704   6.023  0.1729  0.1277 -0.1476
    1DIPC   GL211716   3.778   9.441   6.070 -0.1880  0.0321  0.0466
    1DIPC   C1A11717   3.711   9.721   5.618 -0.2193  0.0503 -0.0197
    1DIPC   D2A11718   3.846   9.941   5.121  0.0110  0.2019 -0.2270
    1DIPC   D3A11719   3.544  10.011   4.881  0.1888 -0.3230  0.1028
    1DIPC   C4A11720   3.477  10.484   5.016  0.0157 -0.2916  0.1855
    1DIPC   C1B11721   3.732   9.221   5.746  0.0837  0.0318 -0.2772
    1DIPC   D2B11722   3.542   8.807   5.825  0.4091 -0.1969  0.0811
    1DIPC   D3B11723   3.700   8.426   5.950  0.4209 -0.3411  0.2571
    1DIPC   C4B11724   3.891   8.180   5.606 -0.0684 -0.4206  0.1494
    1DIPC   NC311725   7.055   1.627   7.013  0.1191 -0.2169 -0.3165
    1DIPC   PO411726   6.593   1.741   7.071  0.1150 -0.2535  0.0960
    1DIPC   GL111727   6.656   1.750   6.626  0.1650 -0.1889  0.0987
    1DIPC   GL211728   6.758   2.090   6.538  0.0053 -0.1846  0.4906
    1DIPC   C1A11729   6.362   1.740   6.305  0.3573 -0.0782  0.0567
    1DIPC   D2A11730   6.404   1.755   5.881 -0.0346  0.2598 -0.2168
    1DIPC   D3A11731   6.322   1.203   5.952 -0.0909  0.0122  0.0818
    1DIPC   C4A11732   5.982   1.143   5.775 -0.0866 -0.0368  0.0732
    1DIPC   C1B11733   6.630   2.232   6.111  0.1249  0.2741 -0.1602
    1DIPC   D2B11734   6.831   2.208   5.610  0.3963 -0.0529  0.0057
    1DIPC   D3B11735   6.994   2.603   5.674  0.0426  0.3546 -0.0267
    1DIPC   C4B11736   6.987   3.046   5.576 -0.0239  0.0085 -0.0240
    1DIPC   NC311737  22.587   3.895   7.006 -0.1203 -0.0749  0.1290
    1DIPC   PO411738  22.852   3.887   6.586 -0.1332 -0.1192 -0.0653
    1DIPC   GL111739  22.912   3.958   6.203  0.0806 -0.0417  0.0630
    1DIPC   GL211740  22.789   3.673   6.127 -0.2735 -0.0520 -0.1804
    1DIPC   C1A11741  23.321   3.785   6.090 -0.1758  0.0111 -0.1554
    1DIPC   D2A11742  23.484   3.610   5.683 -0.0068  0.0046  0.1362
    1DIPC   D3A11743  23.469   3.947   5.356  0.0680  0.1978  0.0826
    1DIPC   C4A11744  23.648   3.904   4.999  0.0104  0.1005  0.1125
    1DIPC   C1B11745  22.975   3.568   5.654  0.1770 -0.0169 -0.0574
    1DIPC   D2B11746  22.992   3.370   5.264 -0.0419  0.2318  0.3307
    1DIPC   D3B11747  23.350   3.505   5.145  0.0183 -0.1955  0.1531
    1DIPC   C4B11748  23.511   3.360   4.686 -0.1521 -0.0501  0.0062
    1DIPC   NC311749  29.205  29.234   6.944  0.0116  0.4172  0.3378
    1DIPC   PO411750  29.052  29.602   6.771 -0.1757  0.3045  0.0782
    1DIPC   GL111751  29.353  29.698   6.451  0.1039 -0.1183 -0.1354
    1DIPC   GL211752  29.636  29.864   6.615 -0.0959  0.0659 -0.0507
    1DIPC   C1A11753  29.723  29.602   6.224 -0.1394  0.1332  0.0217
    1DIPC   D2A11754  29.956  29.514   5.875  0.0154  0.2536  0.1949
    1DIPC   D3A11755  30.030  29.061   5.904 -0.1227 -0.1009 -0.0299
    1DIPC   C4A11756  29.775  28.845   6.276  0.0210 -0.4293  0.2522
    1DIPC   C1B11757  30.008  29.779   6.612 -0.1674  0.2574  0.2111
    1DIPC   D2B11758  30.324  29.615   6.536 -0.4134  0.2302 -0.1994
    1DIPC   D3B11759  30.455  29.272   6.738  0.0725  0.0368 -0.2470
    1DIPC   C4B11760  30.196  29.099   6.902 -0.0148 -0.0228  0.3823
    1DIPC   NC311761  23.350  26.245   6.595  0.2426 -0.3788  0.2053
    1DIPC   PO411762  23.740  26.317   6.808 -0.0940  0.0472  0.1234
    1DIPC   GL111763  23.865  26.246   6.374  0.2294  0.0027  0.2134
    1DIPC   GL211764  24.283  26.141   6.591  0.3342 -0.0504 -0.1509
    1DIPC   C1A11765  23.924  26.170   5.914 -0.1084  0.4501  0.1654
    1DIPC   D2A11766  23.702  26.265   5.638 -0.0574  0.1102  0.0715
    1DIPC   D3A11767  24.076  26.458   5.530  0.0903  0.1789 -0.0479
    1DIPC   C4A11768  24.009  26.699   5.149  0.1147  0.0255  0.1763
    1DIPC   C1B11769  24.439  25.646   6.432  0.1737  0.1133 -0.1352
    1DIPC   D2B11770  24.577  25.300   6.348  0.0584 -0.1540  0.3281
    1DIPC   D3B11771  24.531  24.990   6.072  0.0489  0.0653 -0.2133
    1DIPC   C4B11772  24.692  24.953   5.647 -0.0200  0.0104  0.0117
    1DIPC   NC311773  13.048  26.036   6.646  0.0779 -0.1493  0.1202
    1DIPC   PO411774  12.891  26.486   6.684  0.1218 -0.0062  0.1571
    1DIPC   GL111775  12.561  26.730   6.365  0.0867  0.0547 -0.0410
    1DIPC   GL211776  12.650  27.042   6.153 -0.0006 -0.0419 -0.1186
    1DIPC   C1A11777  12.203  26.726   6.036 -0.1443 -0.0737 -0.0680
    1DIPC   D2A11778  11.993  26.867   5.692 -0.1608  0.2773 -0.1334
    1DIPC   D3A11779  11.693  26.536   5.646  0.3529  0.1319  0.3271
    1DIPC   C4A11780  12.120  26.296   5.583  0.0941 -0.0106 -0.1259
    1DIPC   C1B11781  12.759  26.835   5.795  0.1610 -0.3642 -0.0871
    1DIPC   D2B11782  12.490  26.937   5.488 -0.0140 -0.0778  0.0383
    1DIPC   D3B11783  12.638  27.129   5.138 -0.0100  0.1192  0.2721
    1DIPC   C4B11784  12.916  26.981   4.782  0.0056 -0.2051 -0.1116
    1DIPC   NC311785  13.633  25.895   6.939  0.1207 -0.0817  0.3851
    1DIPC   PO411786  13.237  25.705   6.994  0.1270 -0.1197 -0.1335
    1DIPC   GL111787  13.404  25.635   6.562 -0.0960 -0.0569 -0.1631
    1DIPC   GL211788  13.559  25.830   6.362  0.1020  0.1419 -0.1708
    1DIPC   C1A11789  13.648  25.366   6.258  0.0588  0.0678  0.0331
    1DIPC   D2A11790  14.133  25.150   6.105 -0.0682  0.0791  0.1209
    1DIPC   D3A11791  13.791  24.847   6.250 -0.2135 -0.1092 -0.4612
    1DIPC   C4A11792  13.370  24.966   5.982  0.2567 -0.3305  0.1511
    1DIPC   C1B11793  13.563  25.866   5.989 -0.1220 -0.0109 -0.1606
    1DIPC   D2B11794  13.538  25.779   5.610  0.0317  0.0351 -0.1688
    1DIPC   D3B11795  13.829  25.870   5.340 -0.2244  0.1179 -0.1232
    1DIPC   C4B11796  13.724  25.682   4.972  0.1876  0.1199  0.1017
    1DIPC   NC311797   9.627  23.072   5.964 -0.1597 -0.0511  0.0033
    1DIPC   PO411798   9.538  23.504   6.029 -0.1975  0.1359 -0.0623
    1DIPC   GL111799   9.504  23.398   5.597  0.0936  0.0880 -0.0430
    1DIPC   GL211800   9.218  23.444   5.449  0.0398 -0.3042 -0.2255
    1DIPC   C1A11801   9.559  23.452   5.050 -0.1689  0.2365 -0.2637
    1DIPC   D2A11802   9.716  23.496   4.604  0.2194 -0.2432  0.0589
    1DIPC   D3A11803   9.622  23.498   4.200 -0.3143  0.3142 -0.1526
    1DIPC   C4A11804   9.376  23.264   4.002  0.2303 -0.1942 -0.0395
    1DIPC   C1B11805   9.013  23.729   5.198 -0.2443  0.3235  0.1322
    1DIPC   D2B11806   8.546  23.912   4.990  0.3763 -0.1756 -0.2090
    1DIPC   D3B11807   8.609  23.913   4.579  0.4653  0.1380 -0.1342
    1DIPC   C4B11808   8.493  23.685   4.200 -0.0298 -0.1009 -0.0858
    1DIPC   NC311809  26.380   1.235   6.435  0.2755 -0.0164 -0.6692
    1DIPC   PO411810  26.159   0.837   6.359 -0.0140 -0.0012  0.0488
    1DIPC   GL111811  26.293   0.487   6.110  0.3150  0.0529 -0.0174
    1DIPC   GL211812  26.561   0.365   6.284  0.2708  0.1738 -0.1546
    1DIPC   C1A11813  26.369   0.282   5.662  0.1200  0.0036  0.1117
    1DIPC   D2A11814  26.565   0.551   5.405  0.3458  0.1807 -0.0323
    1DIPC   D3A11815  26.419   0.414   5.046 -0.2562 -0.0222  0.0210
    1DIPC   C4A11816  26.761   0.476   4.710  0.2911  0.2767 -0.2394
    1DIPC   C1B11817  26.813   0.526   5.845 -0.1681 -0.1193  0.0046
    1DIPC   D2B11818  27.028   0.612   5.414 -0.1630 -0.2428 -0.0745
    1DIPC   D3B11819  26.925   0.791   5.061  0.1905  0.1670  0.2233
    1DIPC   C4B11820  26.646   1.001   5.059  0.0839  0.1142  0.1121
    1DIPC   NC311821  23.443  15.836   5.797  0.2977 -0.1521 -0.0581
    1DIPC   PO411822  23.565  15.403   5.741  0.0682 -0.0929  0.0884
    1DIPC   GL111823  23.646  15.627   5.362 -0.2152  0.0020  0.2307
    1DIPC   GL211824  23.904  15.826   5.474  0.1297  0.2128  0.4102
    1DIPC   C1A11825  23.758  15.714   4.953  0.1154  0.0177  0.0804
    1DIPC   D2A11826  23.809  15.713   4.543  0.1165 -0.1306  0.1926
    1DIPC   D3A11827  23.960  16.147   4.735 -0.3222  0.1818  0.1900
    1DIPC   C4A11828  24.372  16.291   4.809  0.0942 -0.2920 -0.1106
    1DIPC   C1B11829  24.276  16.119   5.275 -0.1012  0.2939 -0.1882
    1DIPC   D2B11830  24.667  16.373   5.221  0.1550  0.1397 -0.0594
    1DIPC   D3B11831  24.418  16.775   5.148 -0.0788  0.0211  0.1470
    1DIPC   C4B11832  24.447  17.021   4.797 -0.3353 -0.1080 -0.2358
    1DIPC   NC311833   3.801   5.829   7.191  0.3242  0.1080  0.3692
    1DIPC   PO411834   3.675   5.874   6.773  0.0996 -0.0363 -0.0149
    1DIPC   GL111835   3.573   5.892   6.273  0.0531  0.0808 -0.0242
    1DIPC   GL211836   3.680   6.224   6.192 -0.0388  0.1924  0.1471
    1DIPC   C1A11837   3.447   5.964   5.845 -0.1637  0.3116  0.0580
    1DIPC   D2A11838   3.540   5.882   5.367  0.0056 -0.1237 -0.6217
    1DIPC   D3A11839   3.222   6.147   5.438  0.2047 -0.1209 -0.2586
    1DIPC   C4A11840   2.840   6.279   5.259 -0.0943  0.2374  0.1728
    1DIPC   C1B11841   4.007   6.266   5.938 -0.0997 -0.0697  0.1889
    1DIPC   D2B11842   4.374   6.454   5.754  0.1299 -0.0951 -0.0841
    1DIPC   D3B11843   4.526   6.397   5.263 -0.2046 -0.0524 -0.1513
    1DIPC   C4B11844   4.712   6.175   4.967 -0.0050 -0.1116  0.0911
    1DIPC   NC311845   0.471  10.074   5.848  0.0923 -0.0303  0.1309
    1DIPC   PO411846   0.891   9.947   6.157  0.0943 -0.0443 -0.0114
    1DIPC   GL111847   0.981   9.849   5.763  0.0465 -0.2445  0.1674
    1DIPC   GL211848   1.211   9.552   5.637 -0.1202  0.2327 -0.3931
    1DIPC   C1A11849   0.883   9.901   5.319  0.3563  0.2695  0.1450
    1DIPC   D2A11850   0.780  10.284   5.053 -0.0304  0.0398  0.0780
    1DIPC   D3A11851   1.087  10.309   4.800  0.4063  0.1787 -0.2635
    1DIPC   C4A11852   1.365  10.533   4.593  0.2940 -0.0490  0.1191
    1DIPC   C1B11853   1.131   9.372   5.327  0.0912 -0.1165 -0.1108
    1DIPC   D2B11854   1.343   9.233   4.888  0.1912  0.0476  0.4854
    1DIPC   D3B11855   1.356   9.237   4.488 -0.0332  0.2320 -0.0530
    1DIPC   C4B11856   1.247   9.597   4.230 -0.0964  0.2136  0.1505
    1DIPC   NC311857   0.885  21.175   5.836 -0.0749 -0.2175 -0.1235
    1DIPC   PO411858   0.919  20.654   5.702 -0.0346  0.0690 -0.2511
    1DIPC   GL111859   0.765  20.617   5.238  0.1248 -0.0329 -0.0816
    1DIPC   GL211860   0.531  20.818   5.333 -0.0236 -0.1772 -0.0336
    1DIPC   C1A11861   0.785  20.864   4.874 -0.2409 -0.2399  0.1512
    1DIPC   D2A11862   0.659  21.090   4.475  0.1636  0.0818 -0.3580
    1DIPC   D3A11863   1.027  21.233   4.538  0.1466 -0.0869  0.0889
    1DIPC   C4A11864   1.247  21.036   4.695 -0.2011  0.0321 -0.1335
    1DIPC   C1B11865   0.332  21.094   4.965 -0.1993  0.2328  0.0344
    1DIPC   D2B11866   0.255  21.323   4.705  0.1427 -0.4368  0.3230
    1DIPC   D3B11867   0.282  21.384   4.203  0.0039  0.2658 -0.0248
    1DIPC   C4B11868   0.693  21.125   4.032 -0.0545  0.1464  0.0201
    1DIPC   NC311869  23.567  13.799   6.050  0.2492 -0.0237  0.3127
    1DIPC   PO411870  23.659  14.193   5.746  0.2216  0.3363  0.1792
    1DIPC   GL111871  23.829  14.289   5.381  0.1399  0.0712  0.1635
    1DIPC   GL211872  24.074  14.498   5.231  0.2158  0.0806 -0.1951
    1DIPC   C1A11873  23.723  14.232   5.016 -0.1774 -0.3203 -0.1824
    1DIPC   D2A11874  23.709  13.979   4.595 -0.1565  0.0562 -0.1742
    1DIPC   D3A11875  24.159  14.015   4.796  0.0227 -0.0164  0.2006
    1DIPC   C4A11876  24.497  13.692   4.762  0.1165  0.2138  0.1037
    1DIPC   C1B11877  24.032  14.608   4.786  0.0496  0.3404 -0.2682
    1DIPC   D2B11878  24.035  14.557   4.266  0.1309  0.1793  0.0372
    1DIPC   D3B11879  23.613  14.290   4.246 -0.0147 -0.1532 -0.1232
    1DIPC   C4B11880  23.360  14.279   3.813  0.0231 -0.0393  0.2660
    1DIPC   NC311881  19.486   3.082   7.393 -0.1690  0.4394  0.1162
    1DIPC   PO411882  19.104   3.075   7.148 -0.0077 -0.0701 -0.0009
    1DIPC   GL111883  19.003   3.056   6.729 -0.4200  0.3246 -0.1175
    1DIPC   GL211884  19.150   3.066   6.518  0.1532 -0.0943 -0.0523
    1DIPC   C1A11885  18.672   2.785   6.384 -0.0156  0.0606 -0.1154
    1DIPC   D2A11886  18.412   2.449   6.432 -0.1005  0.3000 -0.2324
    1DIPC   D3A11887  18.293   2.689   6.011  0.0390 -0.1367  0.0569
    1DIPC   C4A11888  18.178   3.097   5.926  0.0653  0.1379 -0.1180
    1DIPC   C1B11889  18.975   3.076   6.071  0.3388  0.0285  0.0665
    1DIPC   D2B11890  19.080   3.111   5.616 -0.0537  0.1610  0.0054
    1DIPC   D3B11891  18.992   3.470   5.644  0.2386 -0.2972  0.2584
    1DIPC   C4B11892  19.062   3.899   5.811 -0.4222 -0.0543 -0.2744
    1DIPC   NC311893  21.045  19.690   6.412  0.0136 -0.2374  0.2937
    1DIPC   PO411894  21.007  20.140   6.308 -0.0880  0.0712 -0.0444
    1DIPC   GL111895  21.005  19.899   5.995 -0.0722 -0.1539 -0.1249
    1DIPC   GL211896  21.194  19.994   5.758  0.1019  0.1351  0.0848
    1DIPC   C1A11897  20.848  19.602   5.700  0.3040 -0.2540  0.1919
    1DIPC   D2A11898  20.707  19.211   5.658 -0.1110 -0.0166  0.1597
    1DIPC   D3A11899  20.896  19.198   5.290 -0.3987 -0.3274  0.3536
    1DIPC   C4A11900  21.198  18.972   5.025 -0.0344 -0.0950  0.0508
    1DIPC   C1B11901  21.014  19.940   5.324 -0.3384 -0.2069  0.0661
    1DIPC   D2B11902  21.036  19.894   4.927 -0.0050  0.0069 -0.3277
    1DIPC   D3B11903  20.702  20.154   4.946 -0.0541 -0.0309 -0.1721
    1DIPC   C4B11904  20.539  20.250   4.623 -0.2250  0.5655 -0.2036
    1DIPC   NC311905  26.762  12.860   5.658  0.0841  0.0157 -0.0054
    1DIPC   PO411906  26.701  13.194   5.366 -0.0895 -0.3222  0.2205
    1DIPC   GL111907  26.641  12.898   5.045  0.4247 -0.3018 -0.1741
    1DIPC   GL211908  26.759  12.623   5.079  0.2819 -0.1956 -0.1709
    1DIPC   C1A11909  26.557  12.992   4.639  0.2533 -0.0582 -0.2138
    1DIPC   D2A11910  26.343  13.023   4.162 -0.2041  0.1737  0.1128
    1DIPC   D3A11911  26.656  13.277   3.959  0.3713  0.0149 -0.0497
    1DIPC   C4A11912  26.519  13.472   3.505 -0.1313 -0.1692  0.1278
    1DIPC   C1B11913  26.568  12.516   4.696  0.1992  0.2296 -0.2981
    1DIPC   D2B11914  26.617  12.505   4.247  0.2404  0.0690  0.2392
    1DIPC   D3B11915  26.819  12.522   3.866 -0.2422 -0.2131  0.1355
    1DIPC   C4B11916  26.763  12.172   3.573  0.0444 -0.0593  0.0814
    1DIPC   NC311917  28.876  21.091   5.730  0.0430  0.1103  0.2248
    1DIPC   PO411918  28.727  20.804   5.406  0.0826 -0.1238 -0.0348
    1DIPC   GL111919  28.445  21.087   5.172 -0.1101 -0.3321 -0.1908
    1DIPC   GL211920  28.619  21.049   4.893 -0.4777 -0.5124 -0.0314
    1DIPC   C1A11921  28.079  21.105   4.779 -0.2007 -0.2479 -0.2226
    1DIPC   D2A11922  27.655  21.218   4.582  0.0802 -0.0856 -0.1418
    1DIPC   D3A11923  27.534  21.719   4.645 -0.1325  0.2189  0.1652
    1DIPC   C4A11924  27.183  21.985   4.544 -0.0738 -0.3377  0.0009
    1DIPC   C1B11925  28.396  21.389   4.554  0.0747  0.0627  0.0191
    1DIPC   D2B11926  28.028  21.644   4.694  0.0894 -0.0120 -0.0771
    1DIPC   D3B11927  27.918  21.557   4.241 -0.0876 -0.1130 -0.0814
    1DIPC   C4B11928  27.539  21.834   4.165 -0.0374  0.0217  0.2807
    1DIPC   NC311929  16.215   2.419   7.882 -0.0891  0.2024 -0.1867
    1DIPC   PO411930  16.101   2.479   7.556  0.0544 -0.1768 -0.0335
    1DIPC   GL111931  16.052   2.400   7.016 -0.0061  0.0227  0.0200
    1DIPC   GL211932  16.329   2.186   6.899  0.1531  0.3064 -0.2062
    1DIPC   C1A11933  15.928   2.490   6.610  0.0476  0.2534 -0.1391
    1DIPC   D2A11934  15.623   2.532   6.369  0.2478  0.2195  0.3313
    1DIPC   D3A11935  15.434   2.162   6.369 -0.2434 -0.0538 -0.2101
    1DIPC   C4A11936  15.240   1.834   6.494 -0.0361  0.1385  0.3918
    1DIPC   C1B11937  16.314   2.223   6.482  0.1685 -0.1498 -0.0015
    1DIPC   D2B11938  16.024   2.175   6.108 -0.0845  0.0090  0.0939
    1DIPC   D3B11939  15.879   2.476   5.932  0.1420 -0.0333 -0.1011
    1DIPC   C4B11940  15.425   2.471   5.815 -0.1229 -0.1510 -0.2765
    1DIPC   NC311941  15.905  27.855   7.237  0.0230  0.0683  0.0536
    1DIPC   PO411942  15.659  28.052   6.902 -0.2673 -0.1754 -0.0937
    1DIPC   GL111943  15.801  28.285   6.411 -0.0024 -0.0760 -0.0260
    1DIPC   GL211944  15.590  28.226   6.171  0.0249 -0.0224  0.1804
    1DIPC   C1A11945  16.037  28.378   6.038 -0.0412 -0.3647  0.3204
    1DIPC   D2A11946  16.255  28.670   5.810 -0.4109  0.0195 -0.1673
    1DIPC   D3A11947  16.265  28.749   5.339 -0.0110  0.0371  0.2831
    1DIPC   C4A11948  15.979  29.023   5.230 -0.2579  0.1354  0.2817
    1DIPC   C1B11949  15.497  28.111   5.714 -0.4912  0.0515 -0.0648
    1DIPC   D2B11950  15.458  27.966   5.280  0.1127  0.1224 -0.1580
    1DIPC   D3B11951  15.685  28.259   5.218  0.3701 -0.0873  0.0386
    1DIPC   C4B11952  15.605  28.650   5.175 -0.0082  0.0412 -0.1628
    1DIPC   NC311953  13.931  29.696   7.663 -0.0056  0.0710  0.2928
    1DIPC   PO411954  13.984  29.546   7.175  0.1792 -0.0513 -0.1137
    1DIPC   GL111955  13.992  29.773   6.845 -0.1520 -0.1854 -0.3273
    1DIPC   GL211956  14.289  29.944   6.653 -0.4596  0.1231  0.2673
    1DIPC   C1A11957  13.907  29.925   6.392 -0.0295  0.1952 -0.2873
    1DIPC   D2A11958  14.116  29.869   5.913  0.0658 -0.1642  0.1430
    1DIPC   D3A11959  13.827  29.966   5.698  0.0969 -0.1326 -0.2496
    1DIPC   C4A11960  13.773  30.343   5.598 -0.2343  0.0031  0.0563
    1DIPC   C1B11961  14.402  30.258   6.347 -0.0334 -0.1071  0.2171
    1DIPC   D2B11962  14.768  30.528   6.119 -0.1717  0.0080 -0.2633
    1DIPC   D3B11963  14.473  30.762   6.285 -0.2689  0.0560 -0.3196
    1DIPC   C4B11964  14.231  31.166   6.158 -0.1784 -0.0147 -0.2615
    1DIPC   NC311965  23.769  12.150   6.365  0.1321  0.3003 -0.0274
    1DIPC   PO411966  23.769  12.471   6.232 -0.1615 -0.0614  0.2335
    1DIPC   GL111967  23.618  12.282   5.783 -0.3107  0.1966 -0.3935
    1DIPC   GL211968  23.937  12.130   5.863  0.1104 -0.2113  0.2019
    1DIPC   C1A11969  23.434  12.552   5.469 -0.0269  0.2173 -0.3995
    1DIPC   D2A11970  23.317  12.962   5.327 -0.0261  0.1856 -0.0209
    1DIPC   D3A11971  23.074  13.034   5.479  0.1071  0.0327 -0.0372
    1DIPC   C4A11972  22.905  12.745   5.636  0.2314  0.0625  0.2270
    1DIPC   C1B11973  23.857  12.075   5.410 -0.0408  0.1534 -0.2048
    1DIPC   D2B11974  23.572  12.072   5.099 -0.0608  0.2921 -0.0525
    1DIPC   D3B11975  23.528  12.547   4.953 -0.1347 -0.1680 -0.1273
    1DIPC   C4B11976  23.317  12.754   4.559  0.1205  0.2532  0.0643
    1DIPC   NC311977  22.408  25.115   6.986 -0.2251  0.0647  0.1055
    1DIPC   PO411978  22.477  25.463   7.013 -0.0363  0.0909  0.0295
    1DIPC   GL111979  22.498  25.295   6.548 -0.1463  0.1190 -0.1249
    1DIPC   GL211980  22.395  25.075   6.350  0.5173  0.3373 -0.0013
    1DIPC   C1A11981  22.732  25.348   6.099 -0.1469 -0.1178  0.1046
    1DIPC   D2A11982  22.947  25.375   5.633 -0.0817 -0.0190  0.0086
    1DIPC   D3A11983  22.724  25.156   5.293 -0.1343 -0.0625  0.1516
    1DIPC   C4A11984  23.003  24.757   5.092 -0.1034  0.1018 -0.1291
    1DIPC   C1B11985  22.251  25.377   6.009  0.3916 -0.1383 -0.0599
    1DIPC   D2B11986  22.384  25.386   5.650  0.2022 -0.0592  0.1472
    1DIPC   D3B11987  22.294  25.444   5.265  0.0309 -0.0687  0.0205
    1DIPC   C4B11988  22.295  25.180   5.008 -0.1376  0.1090  0.0049
    1DIPC   NC311989  21.587  18.287   6.431 -0.0100 -0.0558  0.1480
    1DIPC   PO411990  21.750  18.636   6.209 -0.0344  0.1364 -0.1481
    1DIPC   GL111991  21.828  18.541   5.756 -0.1607 -0.1479 -0.3142
    1DIPC   GL211992  22.049  18.764   5.642  0.2930  0.0488  0.2430
    1DIPC   C1A11993  21.851  18.376   5.322 -0.0340 -0.0676 -0.1223
    1DIPC   D2A11994  21.886  18.487   4.952 -0.2193 -0.1476  0.4758
    1DIPC   D3A11995  21.435  18.597   4.820 -0.1230 -0.1351  0.1015
    1DIPC   C4A11996  21.257  18.971   4.552 -0.3753  0.2077 -0.1004
    1DIPC   C1B11997  22.261  18.810   5.301 -0.2186 -0.0615 -0.1864
    1DIPC   D2B11998  22.328  18.361   5.237  0.1250 -0.1356  0.0471
    1DIPC   D3B11999  22.473  18.653   4.878  0.3625 -0.0303 -0.0580
    1DIPC   C4B12000  22.704  19.044   4.765  0.0064  0.0554  0.0817
    1DIPC   NC312001  19.354  28.976   6.481 -0.2439 -0.0030  0.2210
    1DIPC   PO412002  19.740  28.855   6.439 -0.0180  0.1274  0.2863
    1DIPC   GL112003  19.614  28.910   6.039 -0.1448  0.1802 -0.1038
    1DIPC   GL212004  19.531  29.299   5.949  0.3193  0.2165  0.2270
    1DIPC   C1A12005  19.540  28.616   5.757 -0.2890  0.0656 -0.0181
    1DIPC   D2A12006  19.141  28.457   5.636  0.1408 -0.1069 -0.2005
    1DIPC   D3A12007  18.898  28.321   5.235 -0.1678 -0.2700 -0.1231
    1DIPC   C4A12008  18.735  27.889   5.186 -0.0962  0.2819  0.1121
    1DIPC   C1B12009  19.486  29.579   5.626  0.1534 -0.0500  0.1830
    1DIPC   D2B12010  19.323  29.710   5.171 -0.1704  0.0696 -0.0714
    1DIPC   D3B12011  19.059  29.367   5.040 -0.1769  0.0799  0.1868
    1DIPC   C4B12012  18.635  29.389   5.315 -0.0320  0.3860  0.1153
    1DIPC   NC312013   3.584   4.577   6.553  0.0687  0.0416  0.0339
    1DIPC   PO412014   3.447   4.560   6.093  0.1325  0.2033 -0.2458
    1DIPC   GL112015   3.273   4.337   5.769  0.2059 -0.0542  0.0291
    1DIPC   GL212016   3.452   4.165   5.513 -0.3013 -0.1831 -0.1033
    1DIPC   C1A12017   3.021   4.233   5.279  0.3038  0.0683  0.0879
    1DIPC   D2A12018   2.738   3.930   4.939 -0.3364 -0.1438  0.0681
    1DIPC   D3A12019   2.673   3.997   4.526  0.0001 -0.0577 -0.2008
    1DIPC   C4A12020   2.537   3.707   4.259 -0.0256 -0.0597 -0.0573
    1DIPC   C1B12021   3.738   3.855   5.532  0.1647 -0.0257 -0.0085
    1DIPC   D2B12022   3.907   3.481   5.408 -0.1566 -0.3032 -0.2108
    1DIPC   D3B12023   3.583   3.466   5.110  0.3712 -0.1062 -0.0614
    1DIPC   C4B12024   3.364   3.982   5.036  0.0157 -0.0494  0.2347
    1DIPC   NC312025   3.400   8.549   7.132  0.2094  0.1483 -0.1824
    1DIPC   PO412026   3.557   8.213   6.909  0.0873 -0.0677  0.2114
    1DIPC   GL112027   3.560   8.009   6.466 -0.1477  0.2234 -0.5042
    1DIPC   GL212028   3.307   8.044   6.285 -0.1650  0.0951 -0.0818
    1DIPC   C1A12029   3.725   7.759   6.137 -0.2274 -0.1556 -0.2246
    1DIPC   D2A12030   3.749   7.587   5.736  0.0877 -0.0637  0.0969
    1DIPC   D3A12031   3.333   7.535   5.651  0.0848 -0.0991  0.3333
    1DIPC   C4A12032   3.062   7.242   5.936  0.0783  0.0243  0.0740
    1DIPC   C1B12033   3.331   8.053   5.907  0.3406  0.1295 -0.0439
    1DIPC   D2B12034   3.328   8.421   5.571 -0.2105  0.3196  0.2311
    1DIPC   D3B12035   3.060   8.191   5.259 -0.1751  0.0865  0.2905
    1DIPC   C4B12036   3.083   7.686   5.204  0.4772  0.2800  0.2103
    1DIPC   NC312037  15.078  27.501   6.922  0.1470  0.1796 -0.0233
    1DIPC   PO412038  15.298  27.210   6.558  0.1328  0.0506  0.0270
    1DIPC   GL112039  15.295  27.500   6.147 -0.0517 -0.0981  0.2142
    1DIPC   GL212040  15.422  27.780   6.060 -0.2457  0.2651  0.4517
    1DIPC   C1A12041  15.240  27.169   5.862  0.1229 -0.1687 -0.2543
    1DIPC   D2A12042  15.418  27.103   5.503 -0.2013 -0.1025 -0.0309
    1DIPC   D3A12043  15.461  27.390   5.248 -0.0518 -0.4616 -0.3752
    1DIPC   C4A12044  15.710  27.181   4.916 -0.0752  0.1355  0.0316
    1DIPC   C1B12045  15.473  27.598   5.721  0.0134  0.1502 -0.0427
    1DIPC   D2B12046  15.800  27.657   5.466 -0.1885 -0.1010 -0.1909
    1DIPC   D3B12047  15.895  27.846   5.047  0.1065  0.0922  0.1607
    1DIPC   C4B12048  16.121  28.073   4.844 -0.0341  0.0273 -0.1511
    1DIPC   NC312049  17.556  19.744   7.210  0.1692 -0.0515  0.0188
    1DIPC   PO412050  17.178  19.825   7.002 -0.0495  0.1521  0.1658
    1DIPC   GL112051  17.322  20.056   6.632 -0.0952  0.2954 -0.0116
    1DIPC   GL212052  17.662  20.035   6.436 -0.1216  0.2771  0.2147
    1DIPC   C1A12053  17.203  19.906   6.223  0.2178  0.1484  0.0431
    1DIPC   D2A12054  17.530  20.036   5.864  0.0770 -0.3340 -0.3143
    1DIPC   D3A12055  17.363  20.470   6.070  0.1780  0.1247  0.1139
    1DIPC   C4A12056  17.037  20.367   6.337  0.1219  0.1700 -0.0658
    1DIPC   C1B12057  17.823  20.388   6.234  0.0108  0.0508  0.1270
    1DIPC   D2B12058  17.822  20.829   6.147 -0.0423 -0.2269  0.1549
    1DIPC   D3B12059  17.482  20.973   5.905 -0.0517  0.0989 -0.2503
    1DIPC   C4B12060  17.424  20.822   5.557  0.1241 -0.0147 -0.0213
    1DIPC   NC312061  12.651  29.018   7.210  0.0300  0.1550 -0.2706
    1DIPC   PO412062  12.371  29.285   6.983 -0.3834  0.0559 -0.0843
    1DIPC   GL112063  12.501  29.464   6.612 -0.1963 -0.0997  0.0301
    1DIPC   GL212064  12.281  29.457   6.401  0.3205  0.0143  0.1268
    1DIPC   C1A12065  12.802  29.443   6.281 -0.3867  0.0455 -0.2196
    1DIPC   D2A12066  12.933  29.367   5.949 -0.0825  0.0273  0.1722
    1DIPC   D3A12067  13.287  29.508   6.081  0.1135 -0.3492 -0.2585
    1DIPC   C4A12068  13.261  29.467   6.533 -0.2140 -0.1841 -0.0099
    1DIPC   C1B12069  12.129  29.804   6.443 -0.1972  0.0836 -0.1922
    1DIPC   D2B12070  11.813  30.017   6.672 -0.1186 -0.1572 -0.3901
    1DIPC   D3B12071  11.653  30.508   6.757 -0.1402 -0.1878 -0.1659
    1DIPC   C4B12072  11.547  30.853   6.579  0.0762  0.1711 -0.0762
    1DIPC   NC312073   6.041  27.450   6.954  0.2569 -0.3521 -0.3362
    1DIPC   PO412074   5.553  27.315   6.879 -0.0581  0.0074 -0.1730
    1DIPC   GL112075   5.413  27.248   6.474 -0.0599 -0.0664  0.1021
    1DIPC   GL212076   5.136  27.347   6.349  0.1505 -0.2189  0.3486
    1DIPC   C1A12077   5.669  27.277   6.124  0.0613 -0.2167 -0.0992
    1DIPC   D2A12078   6.035  26.915   5.961  0.1406 -0.1410 -0.0167
    1DIPC   D3A12079   6.426  26.973   5.724  0.1219 -0.1781  0.1455
    1DIPC   C4A12080   6.292  26.842   5.267 -0.0049 -0.0671  0.0357
    1DIPC   C1B12081   5.371  27.734   6.125 -0.0942 -0.0573  0.3294
    1DIPC   D2B12082   5.162  27.835   5.801 -0.0047  0.3691 -0.2029
    1DIPC   D3B12083   4.877  27.528   5.423 -0.0284  0.0736  0.3257
    1DIPC   C4B12084   4.628  27.475   5.096  0.5055  0.1406  0.3099
    1DIPC   NC312085  18.137   4.891   7.601  0.0581 -0.1359 -0.2810
    1DIPC   PO412086  17.777   4.740   7.396 -0.0542 -0.4975  0.0203
    1DIPC   GL112087  17.763   4.742   6.871  0.0672 -0.3634 -0.2232
    1DIPC   GL212088  17.755   4.446   6.721 -0.0911  0.0858 -0.1072
    1DIPC   C1A12089  17.904   4.963   6.588  0.0830 -0.1384  0.3274
    1DIPC   D2A12090  17.791   5.006   6.158  0.0461  0.1927  0.2264
    1DIPC   D3A12091  18.151   4.864   5.996 -0.2904  0.1864 -0.5057
    1DIPC   C4A12092  18.435   4.758   6.397 -0.0180 -0.0875  0.0446
    1DIPC   C1B12093  17.752   4.476   6.334 -0.1285  0.0201  0.0486
    1DIPC   D2B12094  17.860   4.346   5.958 -0.1306 -0.0125 -0.1714
    1DIPC   D3B12095  18.146   3.992   5.918  0.3675 -0.2640 -0.1534
    1DIPC   C4B12096  18.225   3.691   6.214  0.0118 -0.2353  0.1677
    1DIPC   NC312097  29.206  11.644   5.838  0.0191  0.1233  0.0016
    1DIPC   PO412098  28.854  11.790   5.616 -0.0646  0.2132  0.4761
    1DIPC   GL112099  28.767  12.001   5.267 -0.1021 -0.2282 -0.1458
    1DIPC   GL212100  28.718  12.288   5.292  0.1916 -0.0177  0.0161
    1DIPC   C1A12101  28.540  11.815   4.824  0.1408  0.1266 -0.0940
    1DIPC   D2A12102  28.830  11.755   4.488 -0.2021 -0.0628 -0.0346
    1DIPC   D3A12103  28.861  12.227   4.217 -0.1548  0.0926 -0.1486
    1DIPC   C4A12104  29.173  12.472   4.180 -0.1890  0.0911  0.0747
    1DIPC   C1B12105  28.540  12.377   4.956 -0.3346  0.0948  0.0128
    1DIPC   D2B12106  28.583  12.328   4.607  0.0289  0.0335 -0.0218
    1DIPC   D3B12107  28.357  12.086   4.284 -0.2026  0.2195  0.2409
    1DIPC   C4B12108  28.007  12.239   4.044  0.0864  0.2040 -0.2235
    1DIPC   NC312109   6.370   9.222   7.329 -0.2393  0.5209 -0.1025
    1DIPC   PO412110   5.956   9.132   7.150 -0.1972 -0.0144 -0.0074
    1DIPC   GL112111   5.869   9.350   6.693 -0.3267 -0.5323 -0.0357
    1DIPC   GL212112   5.810   9.263   6.394 -0.1277  0.0138  0.3743
    1DIPC   C1A12113   5.982   9.697   6.389 -0.0667  0.1623 -0.3492
    1DIPC   D2A12114   6.231  10.046   6.219  0.0082 -0.1023  0.2565
    1DIPC   D3A12115   6.052   9.849   5.856  0.0840  0.0551 -0.2059
    1DIPC   C4A12116   6.061   9.446   5.931 -0.2509  0.1268  0.3528
    1DIPC   C1B12117   6.162   9.018   6.159 -0.0761 -0.0082 -0.0386
    1DIPC   D2B12118   6.471   8.660   5.973 -0.2960  0.3129 -0.0348
    1DIPC   D3B12119   6.481   8.847   5.640  0.3164 -0.0528 -0.1884
    1DIPC   C4B12120   6.831   8.999   5.265 -0.3669 -0.1951 -0.2373
    1DIPC   NC312121  19.875   4.228   7.250  0.0236  0.0887 -0.2302
    1DIPC   PO412122  19.905   4.607   7.014 -0.2555 -0.3135  0.0889
    1DIPC   GL112123  19.878   4.439   6.588 -0.2044 -0.0361  0.2127
    1DIPC   GL212124  19.949   4.038   6.569  0.4318 -0.0034  0.0537
    1DIPC   C1A12125  19.791   4.318   6.133  0.3055 -0.3099  0.0007
    1DIPC   D2A12126  19.643   4.286   5.743 -0.1453 -0.1508  0.4124
    1DIPC   D3A12127  19.644   4.681   5.785  0.1691  0.0990 -0.1425
    1DIPC   C4A12128  19.809   4.944   5.440  0.0083 -0.2993 -0.1211
    1DIPC   C1B12129  19.702   3.705   6.548  0.0795  0.1785 -0.2230
    1DIPC   D2B12130  19.586   3.233   6.406  0.1466 -0.0748 -0.0734
    1DIPC   D3B12131  19.961   3.182   6.234 -0.3004 -0.2961 -0.0619
    1DIPC   C4B12132  20.044   3.437   5.884 -0.0557 -0.0346 -0.1266
    1DIPC   NC312133   1.940   1.403   7.175  0.1195 -0.0683 -0.1398
    1DIPC   PO412134   1.856   1.163   6.831  0.0768 -0.0231 -0.4351
    1DIPC   GL112135   1.825   1.098   6.449  0.1073 -0.0167 -0.1232
    1DIPC   GL212136   1.482   0.988   6.416  0.0234  0.0297 -0.2466
    1DIPC   C1A12137   1.995   0.838   6.090  0.0550  0.0555  0.0048
    1DIPC   D2A12138   2.220   0.542   5.942  0.2206  0.1716 -0.0438
    1DIPC   D3A12139   2.359   0.676   5.581  0.2958 -0.0147 -0.0700
    1DIPC   C4A12140   2.501   0.330   5.323  0.1212  0.0156  0.1081
    1DIPC   C1B12141   1.512   0.883   5.959 -0.0157  0.1428  0.0112
    1DIPC   D2B12142   1.726   1.185   5.694  0.0155  0.1772 -0.0279
    1DIPC   D3B12143   1.290   1.211   5.683  0.1423 -0.0088  0.1613
    1DIPC   C4B12144   0.981   1.435   5.398 -0.1563  0.0335  0.0379
    1DIPC   NC312145  22.081  12.914   6.231  0.0029 -0.0281 -0.0140
    1DIPC   PO412146  22.564  13.000   6.210  0.3401  0.0494 -0.1021
    1DIPC   GL112147  22.540  13.041   5.791  0.0835  0.2348 -0.3074
    1DIPC   GL212148  22.289  12.813   5.824 -0.0295 -0.1811 -0.1134
    1DIPC   C1A12149  22.454  13.078   5.289 -0.2226 -0.1545  0.3034
    1DIPC   D2A12150  22.470  12.974   4.853 -0.0893  0.0052  0.3100
    1DIPC   D3A12151  22.745  12.701   5.158  0.0062 -0.0520  0.1637
    1DIPC   C4A12152  23.022  12.432   4.901  0.1163 -0.0145 -0.1892
    1DIPC   C1B12153  22.486  12.432   5.579 -0.0820  0.0403 -0.4587
    1DIPC   D2B12154  22.573  12.210   5.336  0.1053  0.0353  0.1173
    1DIPC   D3B12155  22.078  12.158   5.127  0.1116 -0.1846  0.0668
    1DIPC   C4B12156  21.732  11.885   4.788  0.1295  0.1417  0.3088
    1DIPC   NC312157  18.163   2.202   7.578  0.0794 -0.2377  0.0235
    1DIPC   PO412158  18.499   2.414   7.310 -0.3991 -0.0636  0.1855
    1DIPC   GL112159  18.142   2.438   6.927  0.2787  0.0384 -0.2700
    1DIPC   GL212160  18.138   2.823   6.711 -0.3015  0.0012  0.1086
    1DIPC   C1A12161  17.857   2.298   6.631 -0.4276 -0.1919 -0.0254
    1DIPC   D2A12162  17.709   1.964   6.512 -0.0454 -0.0856  0.2438
    1DIPC   D3A12163  18.175   1.952   6.496  0.1436  0.0551  0.0998
    1DIPC   C4A12164  18.337   2.079   6.098  0.0697  0.0551  0.0966
    1DIPC   C1B12165  17.959   3.099   6.362 -0.3259  0.1674 -0.1290
    1DIPC   D2B12166  17.755   3.485   6.231  0.0514 -0.0611 -0.2633
    1DIPC   D3B12167  17.887   3.496   5.872 -0.1223 -0.0586  0.0558
    1DIPC   C4B12168  17.792   3.163   5.533  0.4104  0.1527 -0.1411
    1DIPC   NC312169   6.533  12.326   7.225  0.2584  0.2850  0.1134
    1DIPC   PO412170   6.892  12.581   7.371  0.1273 -0.0137 -0.1301
    1DIPC   GL112171   7.027  12.511   6.925 -0.4822  0.0258  0.2811
    1DIPC   GL212172   6.678  12.416   6.783 -0.0449 -0.0222  0.0390
    1DIPC   C1A12173   7.136  12.098   6.650 -0.3029 -0.0332  0.3878
    1DIPC   D2A12174   6.903  11.899   6.361  0.0813 -0.2130  0.2976
    1DIPC   D3A12175   6.946  11.528   6.136 -0.0271  0.1646 -0.2070
    1DIPC   C4A12176   7.286  11.215   6.152  0.1910  0.1026  0.1417
    1DIPC   C1B12177   6.536  12.238   6.459  0.0918  0.3182 -0.0299
    1DIPC   D2B12178   6.541  12.428   6.029  0.3145  0.0650 -0.1245
    1DIPC   D3B12179   6.626  12.317   5.622  0.0281 -0.0903  0.3815
    1DIPC   C4B12180   6.801  12.623   5.252 -0.0871  0.2218  0.0657
    1DIPC   NC312181  28.213  15.494   5.168  0.1250  0.2242  0.1072
    1DIPC   PO412182  28.543  15.263   5.392  0.0266 -0.4764 -0.0469
    1DIPC   GL112183  28.566  15.087   4.958  0.1212 -0.0278  0.0023
    1DIPC   GL212184  28.329  15.271   4.696 -0.0667  0.0459  0.1476
    1DIPC   C1A12185  28.718  14.822   4.708 -0.1666 -0.0480  0.2788
    1DIPC   D2A12186  28.843  14.335   4.668 -0.4475 -0.2698 -0.0620
    1DIPC   D3A12187  28.451  14.118   4.866  0.4928 -0.0204 -0.2083
    1DIPC   C4A12188  28.209  13.826   4.790  0.0369 -0.2387  0.1301
    1DIPC   C1B12189  28.504  15.073   4.357 -0.5937 -0.0979  0.2003
    1DIPC   D2B12190  28.773  15.048   4.056  0.2408 -0.1249 -0.1661
    1DIPC   D3B12191  28.895  14.686   4.137  0.3803 -0.4697  0.1376
    1DIPC   C4B12192  29.240  14.899   4.398 -0.1747 -0.0952 -0.1463
    1DIPC   NC312193  27.932   7.180   6.281 -0.1798 -0.2906 -0.2780
    1DIPC   PO412194  27.858   7.556   6.171  0.3428 -0.1111 -0.1644
    1DIPC   GL112195  27.761   7.379   5.761  0.1154  0.0602  0.0650
    1DIPC   GL212196  27.955   7.619   5.654 -0.1906  0.1107  0.1526
    1DIPC   C1A12197  27.943   7.172   5.411  0.1299  0.0577  0.1075
    1DIPC   D2A12198  28.335   7.333   5.492 -0.1345 -0.0110  0.0496
    1DIPC   D3A12199  28.576   7.508   5.044 -0.1592 -0.0626 -0.2542
    1DIPC   C4A12200  29.032   7.454   4.910 -0.1127 -0.2961 -0.1874
    1DIPC   C1B12201  27.645   7.529   5.221  0.2831 -0.0301 -0.0793
    1DIPC   D2B12202  27.261   7.722   5.121  0.0903  0.0572 -0.1521
    1DIPC   D3B12203  27.251   7.583   4.711  0.0712  0.2406  0.1451
    1DIPC   C4B12204  27.408   7.536   4.240  0.3227  0.0521 -0.3345
    1DIPC   NC312205  25.442  23.008   6.509  0.4779 -0.0190  0.2539
    1DIPC   PO412206  25.409  22.779   6.063 -0.1293  0.2394  0.1645
    1DIPC   GL112207  25.652  22.829   5.699 -0.0313  0.0884  0.2203
    1DIPC   GL212208  25.799  22.626   5.740 -0.0434 -0.0836  0.1057
    1DIPC   C1A12209  25.880  22.823   5.277  0.0940 -0.0455  0.1790
    1DIPC   D2A12210  26.212  22.841   5.087 -0.1838  0.2306  0.0698
    1DIPC   D3A12211  26.355  23.300   5.121  0.1171  0.1827 -0.2869
    1DIPC   C4A12212  26.265  23.633   4.751 -0.1128 -0.1456 -0.1976
    1DIPC   C1B12213  25.646  22.186   5.526 -0.0353 -0.0229  0.0888
    1DIPC   D2B12214  25.734  22.053   5.060  0.1043  0.2061 -0.3582
    1DIPC   D3B12215  25.860  21.981   4.644  0.0201 -0.1358  0.2685
    1DIPC   C4B12216  25.666  21.700   4.453  0.1723  0.1727  0.0939
    1DIPC   NC312217  21.107   7.542   6.800  0.1204  0.0975 -0.0130
    1DIPC   PO412218  21.044   7.200   7.003 -0.0741 -0.0709  0.1031
    1DIPC   GL112219  21.156   7.100   6.606  0.2070 -0.2681 -0.0637
    1DIPC   GL212220  21.446   7.287   6.401  0.1891 -0.2734  0.0555
    1DIPC   C1A12221  20.875   7.109   6.289 -0.0094  0.0402 -0.0457
    1DIPC   D2A12222  20.924   7.049   5.844  0.0848 -0.1229  0.1196
    1DIPC   D3A12223  20.553   7.090   5.438  0.1042  0.0252 -0.1262
    1DIPC   C4A12224  20.233   6.895   5.254  0.0287 -0.1687 -0.0109
    1DIPC   C1B12225  21.229   7.450   6.080  0.0555 -0.3034  0.2918
    1DIPC   D2B12226  21.170   7.446   5.595  0.0273 -0.0029 -0.0595
    1DIPC   D3B12227  21.152   7.730   5.135 -0.2167  0.0642 -0.1575
    1DIPC   C4B12228  21.295   7.650   4.699  0.0630  0.1438 -0.0577
    1DIPC   NC312229  25.246  14.266   5.694 -0.1610  0.0805 -0.1652
    1DIPC   PO412230  25.189  14.657   5.404  0.4859 -0.3828 -0.0332
    1DIPC   GL112231  25.233  14.409   4.961  0.0793  0.0390  0.1430
    1DIPC   GL212232  24.944  14.628   4.810 -0.0928  0.0953  0.1683
    1DIPC   C1A12233  25.439  14.429   4.685  0.2163  0.1040 -0.4234
    1DIPC   D2A12234  25.560  14.469   4.253  0.1272 -0.1327 -0.0566
    1DIPC   D3A12235  25.665  14.049   4.397 -0.0665 -0.0199  0.1658
    1DIPC   C4A12236  25.307  13.976   4.639  0.2285  0.0219 -0.0754
    1DIPC   C1B12237  24.551  14.540   4.585  0.1489 -0.1238  0.0271
    1DIPC   D2B12238  24.503  14.367   4.191  0.0460 -0.1200 -0.0308
    1DIPC   D3B12239  24.772  14.389   3.882 -0.0519 -0.3390  0.0541
    1DIPC   C4B12240  24.875  14.490   3.461  0.3367  0.1960  0.1043
    1DIPC   NC312241  21.813  20.363   6.231  0.3075  0.1189 -0.1365
    1DIPC   PO412242  21.809  19.935   5.998  0.1438  0.1117 -0.2281
    1DIPC   GL112243  21.862  20.126   5.533  0.0351  0.0052  0.2685
    1DIPC   GL212244  21.551  20.123   5.480 -0.1659 -0.1837  0.2937
    1DIPC   C1A12245  21.952  20.311   5.220  0.0123  0.2138 -0.0779
    1DIPC   D2A12246  21.972  20.409   4.793  0.0694  0.1505 -0.2158
    1DIPC   D3A12247  22.392  20.316   4.561 -0.1666  0.1068 -0.0371
    1DIPC   C4A12248  22.473  20.046   4.134 -0.0344 -0.0160  0.0720
    1DIPC   C1B12249  21.496  20.035   5.124  0.0649 -0.1376  0.0040
    1DIPC   D2B12250  21.550  19.869   4.707  0.0758  0.2110 -0.0676
    1DIPC   D3B12251  22.016  19.954   4.703 -0.5089  0.0535 -0.3679
    1DIPC   C4B12252  22.332  20.070   4.977  0.0603 -0.2122  0.0241
    1DIPC   NC312253  18.308  30.124   7.346 -0.1473 -0.1145 -0.2029
    1DIPC   PO412254  18.516  30.207   6.959  0.1157 -0.1309  0.3384
    1DIPC   GL112255  18.515  30.051   6.514  0.0153 -0.0396  0.2691
    1DIPC   GL212256  18.774  30.120   6.299 -0.1462 -0.0599 -0.2423
    1DIPC   C1A12257  18.392  29.877   6.162  0.0544  0.3433  0.2815
    1DIPC   D2A12258  18.181  29.862   5.798  0.1351  0.2199  0.1609
    1DIPC   D3A12259  18.140  30.104   5.492  0.3027  0.3536 -0.2822
    1DIPC   C4A12260  18.101  30.222   5.023  0.1430 -0.1400  0.0113
    1DIPC   C1B12261  18.676  30.164   5.871 -0.1413  0.2064  0.0633
    1DIPC   D2B12262  18.641  29.785   5.573  0.0795 -0.1346  0.5461
    1DIPC   D3B12263  18.820  29.843   5.240 -0.2966 -0.0245  0.0877
    1DIPC   C4B12264  18.812  29.742   4.769 -0.3235  0.0331 -0.2415
    1DIPC   NC312265  13.636   1.706   7.916  0.0053 -0.0549 -0.1112
    1DIPC   PO412266  13.829   1.375   7.795 -0.0260 -0.2494  0.3143
    1DIPC   GL112267  13.760   1.482   7.359  0.0226  0.1065 -0.0953
    1DIPC   GL212268  13.950   1.619   7.116 -0.0573 -0.1539  0.0756
    1DIPC   C1A12269  13.380   1.510   7.069  0.1754 -0.0361 -0.1814
    1DIPC   D2A12270  13.079   1.722   6.850 -0.0064  0.1657 -0.0174
    1DIPC   D3A12271  12.911   1.601   6.647 -0.1218 -0.1818  0.2259
    1DIPC   C4A12272  12.678   1.844   6.432 -0.0508 -0.1837  0.2137
    1DIPC   C1B12273  14.161   1.397   6.809  0.1592 -0.1249 -0.1296
    1DIPC   D2B12274  14.148   0.978   6.715 -0.0646  0.0734 -0.0059
    1DIPC   D3B12275  14.272   0.728   7.038 -0.1124 -0.0980 -0.2277
    1DIPC   C4B12276  14.431   0.441   6.781  0.0566 -0.1809  0.1436
    1DIPC   NC312277  26.971  17.903   5.532 -0.4942  0.1632 -0.1515
    1DIPC   PO412278  26.669  17.755   5.718  0.2044 -0.0073 -0.2164
    1DIPC   GL112279  26.801  17.588   5.256  0.1300 -0.0415  0.0645
    1DIPC   GL212280  26.588  17.746   5.166  0.0306  0.0403  0.1932
    1DIPC   C1A12281  27.102  17.450   4.883  0.0688 -0.0429  0.0076
    1DIPC   D2A12282  27.155  17.507   4.436 -0.0028 -0.2349  0.0137
    1DIPC   D3A12283  26.864  17.745   4.135  0.1065  0.1939  0.1102
    1DIPC   C4A12284  26.931  17.578   3.760 -0.3035 -0.0260  0.1503
    1DIPC   C1B12285  26.520  18.079   4.842 -0.0730 -0.0954  0.0431
    1DIPC   D2B12286  26.412  18.528   4.785 -0.0595 -0.0385 -0.2485
    1DIPC   D3B12287  25.959  18.405   4.675  0.0717  0.0194  0.2453
    1DIPC   C4B12288  25.694  18.419   4.916  0.2956  0.4662 -0.2773
    1DIPC   NC312289  27.153   4.846   6.175  0.1125 -0.0588 -0.1471
    1DIPC   PO412290  27.454   4.524   6.031 -0.0020 -0.3926  0.0389
    1DIPC   GL112291  27.264   4.718   5.728  0.1549 -0.2806  0.0571
    1DIPC   GL212292  27.550   4.843   5.599 -0.0620 -0.0442 -0.0513
    1DIPC   C1A12293  26.898   5.012   5.645 -0.2920 -0.5152 -0.1933
    1DIPC   D2A12294  26.722   5.357   5.375  0.0422 -0.2284 -0.1752
    1DIPC   D3A12295  26.531   5.359   5.022  0.0175  0.0963  0.0356
    1DIPC   C4A12296  26.609   5.648   4.627  0.0513  0.1816  0.0022
    1DIPC   C1B12297  27.380   5.123   5.449  0.1902 -0.0703  0.1462
    1DIPC   D2B12298  27.246   5.300   5.083 -0.1670 -0.2835 -0.0638
    1DIPC   D3B12299  26.945   5.741   5.113 -0.2587  0.1953 -0.2410
    1DIPC   C4B12300  26.811   6.182   5.231 -0.2117  0.2617  0.0151
    1DIPC   NC312301   2.140  22.871   5.366 -0.1750  0.1172 -0.2070
    1DIPC   PO412302   2.563  22.641   5.302  0.0958 -0.0765  0.3211
    1DIPC   GL112303   2.446  23.013   4.934 -0.0823  0.5352 -0.1339
    1DIPC   GL212304   2.599  23.233   4.816  0.1578  0.0861  0.1904
    1DIPC   C1A12305   2.253  22.933   4.569  0.0197 -0.3544  0.2641
    1DIPC   D2A12306   2.259  22.843   4.195  0.3626  0.3138 -0.1416
    1DIPC   D3A12307   2.437  22.691   3.737  0.3174  0.0584 -0.0756
    1DIPC   C4A12308   2.137  22.468   3.473 -0.2173 -0.0905 -0.0343
    1DIPC   C1B12309   2.444  23.418   4.394 -0.0607 -0.3152 -0.0723
    1DIPC   D2B12310   2.051  23.287   4.156  0.1089 -0.2411  0.1014
    1DIPC   D3B12311   1.886  23.074   3.821  0.4391 -0.0218  0.0863
    1DIPC   C4B12312   2.024  22.946   3.472  0.0601  0.2546  0.0609
    1DIPC   NC312313   0.527  20.091   5.969  0.0755  0.2377 -0.1884
    1DIPC   PO412314   0.075  19.928   5.951 -0.2352  0.0088  0.1077
    1DIPC   GL112315  -0.025  20.270   5.691 -0.1100 -0.0586 -0.2592
    1DIPC   GL212316  -0.006  20.116   5.402 -0.0103 -0.0666  0.1026
    1DIPC   C1A12317  -0.037  20.711   5.611 -0.0339  0.5275  0.2904
    1DIPC   D2A12318  -0.182  21.106   5.352  0.1710 -0.0247 -0.0807
    1DIPC   D3A12319  -0.030  20.777   5.114  0.2611 -0.3474  0.1552
    1DIPC   C4A12320  -0.136  20.472   4.957  0.0522  0.1929 -0.1540
    1DIPC   C1B12321   0.285  20.311   5.209  0.1926  0.2251 -0.1378
    1DIPC   D2B12322   0.551  20.387   4.813  0.1544 -0.2033  0.1085
    1DIPC   D3B12323   0.400  20.138   4.518  0.0656  0.2457  0.1297
    1DIPC   C4B12324   0.114  20.318   4.261 -0.0606 -0.1427 -0.1010
    1DIPC   NC312325  19.313  25.222   7.083  0.1391 -0.0322  0.0766
    1DIPC   PO412326  19.678  25.344   6.750  0.4113 -0.2847  0.1261
    1DIPC   GL112327  19.488  25.468   6.263 -0.2901  0.0328 -0.1662
    1DIPC   GL212328  19.704  25.816   6.040  0.1146  0.3574 -0.0526
    1DIPC   C1A12329  19.137  25.462   6.128  0.2939 -0.0729 -0.3116
    1DIPC   D2A12330  18.861  25.360   6.303 -0.0518 -0.2079 -0.2003
    1DIPC   D3A12331  18.597  25.639   6.192 -0.2622 -0.0950 -0.2211
    1DIPC   C4A12332  18.175  25.734   6.124 -0.1529 -0.1422  0.2860
    1DIPC   C1B12333  19.445  25.743   5.734  0.1807  0.1960 -0.1590
    1DIPC   D2B12334  19.400  25.472   5.340 -0.1511  0.0503 -0.1169
    1DIPC   D3B12335  19.278  25.621   4.886 -0.0318 -0.0210 -0.0511
    1DIPC   C4B12336  18.953  25.708   4.660  0.0550 -0.3018 -0.0335
    1DIPC   NC312337  28.200   7.928   6.257  0.1685 -0.1387 -0.0786
    1DIPC   PO412338  28.354   8.223   5.922  0.1284  0.0136 -0.0968
    1DIPC   GL112339  28.223   8.091   5.507  0.1749  0.2914  0.2915
    1DIPC   GL212340  28.462   7.797   5.483  0.2795 -0.2994 -0.0127
    1DIPC   C1A12341  28.097   7.703   5.202  0.0896 -0.1859  0.2220
    1DIPC   D2A12342  28.081   7.310   4.898 -0.0575 -0.3535  0.1557
    1DIPC   D3A12343  27.787   7.582   4.726  0.0384  0.3639  0.0564
    1DIPC   C4A12344  27.702   7.991   4.833  0.0473  0.2605 -0.2801
    1DIPC   C1B12345  28.448   7.999   5.064  0.1343  0.1478  0.3527
    1DIPC   D2B12346  28.247   7.992   4.635 -0.2802 -0.1658  0.1227
    1DIPC   D3B12347  27.891   8.328   4.487 -0.1558  0.1348  0.0272
    1DIPC   C4B12348  28.068   8.438   4.088 -0.0566 -0.0108 -0.0427
    1DIPC   NC312349   4.071   9.258   6.507  0.0770 -0.0761 -0.1747
    1DIPC   PO412350   4.388   9.610   6.369  0.0069  0.2550 -0.0523
    1DIPC   GL112351   4.433   9.664   5.998 -0.2338  0.2012 -0.2589
    1DIPC   GL212352   4.111   9.855   5.912 -0.1445 -0.2313 -0.0546
    1DIPC   C1A12353   4.727   9.477   5.628 -0.0085  0.0349 -0.1204
    1DIPC   D2A12354   4.821   9.451   5.307 -0.1250  0.3846  0.1545
    1DIPC   D3A12355   4.725   9.755   5.039  0.0352 -0.0209  0.0578
    1DIPC   C4A12356   5.123   9.975   4.906  0.3889 -0.0909 -0.2773
    1DIPC   C1B12357   4.272   9.949   5.410 -0.4898 -0.1402 -0.2760
    1DIPC   D2B12358   4.291  10.191   4.960  0.1279  0.2556  0.0318
    1DIPC   D3B12359   4.051  10.084   4.695 -0.1128 -0.1069 -0.1079
    1DIPC   C4B12360   3.857   9.690   4.570  0.0893 -0.0346 -0.3807
    1DIPC   NC312361  22.734   9.813   5.971 -0.1876  0.0180 -0.0742
    1DIPC   PO412362  22.605   9.464   6.202  0.1458  0.1623 -0.0271
    1DIPC   GL112363  22.213   9.419   5.905 -0.0546 -0.2144 -0.0874
    1DIPC   GL212364  22.385   9.381   5.722 -0.0191 -0.2289 -0.1944
    1DIPC   C1A12365  22.070   9.800   5.751  0.0207  0.2035  0.4511
    1DIPC   D2A12366  21.862  10.116   5.390  0.0521  0.1994 -0.1776
    1DIPC   D3A12367  21.985   9.799   5.241 -0.0584  0.1213  0.0530
    1DIPC   C4A12368  22.375   9.766   4.956 -0.3159 -0.0306  0.2890
    1DIPC   C1B12369  22.464   9.631   5.421 -0.2072  0.0139  0.0075
    1DIPC   D2B12370  22.410  10.041   5.423 -0.0450  0.0887 -0.2242
    1DIPC   D3B12371  22.219  10.263   5.079 -0.0695 -0.1437  0.0113
    1DIPC   C4B12372  22.282  10.452   4.618 -0.0688  0.1216 -0.1309
    1DIPC   NC312373  13.791  27.646   6.743 -0.1081  0.2314 -0.0710
    1DIPC   PO412374  13.886  27.223   6.478 -0.3244 -0.1163  0.0387
    1DIPC   GL112375  13.540  27.313   6.263 -0.0579 -0.3374  0.0406
    1DIPC   GL212376  13.598  27.666   6.133 -0.1992 -0.0545 -0.2366
    1DIPC   C1A12377  13.187  27.221   6.079  0.2832 -0.2127  0.0736
    1DIPC   D2A12378  12.957  27.242   5.748 -0.2655  0.1494  0.2852
    1DIPC   D3A12379  13.240  26.979   5.534 -0.0068 -0.1805 -0.3094
    1DIPC   C4A12380  13.656  26.875   5.500 -0.0013  0.1928 -0.1013
    1DIPC   C1B12381  14.057  27.721   5.963  0.0422 -0.1134  0.0303
    1DIPC   D2B12382  14.451  27.929   5.980 -0.2784  0.0211 -0.0219
    1DIPC   D3B12383  14.235  27.803   5.517  0.0887 -0.2078 -0.2243
    1DIPC   C4B12384  14.467  27.681   5.078  0.1029 -0.0301 -0.2256
    1DIPC   NC312385  19.029  27.651   6.920 -0.0704  0.0809  0.1067
    1DIPC   PO412386  18.700  27.926   6.862 -0.2839  0.1373  0.1823
    1DIPC   GL112387  18.676  27.878   6.354 -0.0172  0.3714  0.1096
    1DIPC   GL212388  18.858  27.544   6.375  0.0785 -0.2396  0.0443
    1DIPC   C1A12389  18.326  27.878   6.014 -0.2711 -0.1986 -0.1352
    1DIPC   D2A12390  18.029  27.810   5.692 -0.0656  0.3060  0.1796
    1DIPC   D3A12391  18.049  27.507   5.415 -0.0605 -0.0164 -0.1398
    1DIPC   C4A12392  17.826  27.527   4.952  0.1579  0.2134  0.1109
    1DIPC   C1B12393  19.176  27.537   6.074  0.3625  0.0838 -0.1476
    1DIPC   D2B12394  19.457  27.701   5.817  0.2393 -0.0133 -0.1935
    1DIPC   D3B12395  19.566  28.131   5.817  0.4108 -0.1396 -0.1194
    1DIPC   C4B12396  19.568  28.237   5.429 -0.3851 -0.0405 -0.6813
    1DIPC   NC312397   0.231  12.708   5.438 -0.2914  0.3524 -0.1400
    1DIPC   PO412398   0.745  12.782   5.558  0.0376  0.1147  0.1254
    1DIPC   GL112399   0.767  12.791   5.129  0.0145  0.2096  0.0180
    1DIPC   GL212400   1.039  12.796   4.943 -0.0636  0.1045  0.3792
    1DIPC   C1A12401   0.627  12.570   4.637  0.0574  0.0955 -0.2783
    1DIPC   D2A12402   0.649  12.247   4.366 -0.0976 -0.1344 -0.0471
    1DIPC   D3A12403   0.773  12.611   4.165 -0.0271 -0.1391  0.1304
    1DIPC   C4A12404   0.488  12.940   4.314  0.0640  0.3240 -0.2625
    1DIPC   C1B12405   1.142  12.524   4.502  0.0195  0.4280 -0.1722
    1DIPC   D2B12406   1.141  12.130   4.137 -0.3647 -0.2348 -0.0583
    1DIPC   D3B12407   0.718  11.839   4.018 -0.0584  0.2078 -0.0457
    1DIPC   C4B12408   0.767  11.492   3.749 -0.3143 -0.0189 -0.0548
    1DIPC   NC312409  28.819   7.979   5.844  0.0660 -0.0283  0.0375
    1DIPC   PO412410  29.162   7.863   6.118 -0.3352 -0.0364  0.2190
    1DIPC   GL112411  29.353   7.779   5.738  0.4876 -0.1448  0.1287
    1DIPC   GL212412  29.643   7.571   5.657 -0.1684  0.0848 -0.3977
    1DIPC   C1A12413  29.202   7.733   5.292 -0.2678  0.2659  0.1369
    1DIPC   D2A12414  28.948   7.990   5.026 -0.0073  0.2129  0.0046
    1DIPC   D3A12415  28.810   7.793   4.661  0.0541 -0.1119 -0.0330
    1DIPC   C4A12416  29.143   7.745   4.272  0.1462 -0.0621 -0.2014
    1DIPC   C1B12417  29.756   7.550   5.284 -0.0244 -0.2394  0.0276
    1DIPC   D2B12418  29.946   7.460   4.892 -0.1068 -0.0375 -0.1223
    1DIPC   D3B12419  29.656   7.431   4.658 -0.2700  0.0223  0.0102
    1DIPC   C4B12420  29.637   7.716   4.310 -0.0294  0.1826 -0.2773
    1DIPC   NC312421  20.385  29.615   7.211  0.1333  0.2002  0.2937
    1DIPC   PO412422  20.040  29.930   6.941  0.0907  0.1215 -0.3253
    1DIPC   GL112423  20.123  30.206   6.642 -0.0327 -0.0087  0.1788
    1DIPC   GL212424  20.037  30.475   6.770 -0.0419  0.0860  0.1603
    1DIPC   C1A12425  20.322  30.498   6.324  0.1702 -0.1322 -0.2651
    1DIPC   D2A12426  20.107  30.865   6.126  0.0208 -0.0062  0.0313
    1DIPC   D3A12427  19.709  31.020   6.304  0.0003 -0.1004  0.2854
    1DIPC   C4A12428  19.283  30.883   6.145 -0.0802  0.2299 -0.0097
    1DIPC   C1B12429  19.837  30.587   6.419  0.0020  0.0470  0.0987
    1DIPC   D2B12430  19.680  30.511   6.041  0.0496  0.0217  0.1449
    1DIPC   D3B12431  19.427  30.323   6.433 -0.1143  0.1612  0.3165
    1DIPC   C4B12432  19.178  30.089   6.151  0.1268  0.1244 -0.0354
    1DIPC   NC312433  19.541  29.969   7.334 -0.1546 -0.4634  0.0452
    1DIPC   PO412434  19.577  29.754   6.895  0.0563  0.0465 -0.0750
    1DIPC   GL112435  19.734  29.915   6.530  0.1173 -0.0949  0.3053
    1DIPC   GL212436  19.570  29.743   6.259  0.1849 -0.1257  0.0144
    1DIPC   C1A12437  20.057  30.097   6.149 -0.0134 -0.2007 -0.1544
    1DIPC   D2A12438  20.291  29.956   5.899 -0.0749  0.0447 -0.3070
    1DIPC   D3A12439  20.290  30.234   5.685 -0.2308 -0.0159  0.0625
    1DIPC   C4A12440  19.962  30.471   5.650 -0.1293 -0.1896  0.1013
    1DIPC   C1B12441  19.685  29.984   5.892 -0.1984 -0.3639  0.1279
    1DIPC   D2B12442  19.803  30.030   5.503 -0.3946 -0.0724  0.1475
    1DIPC   D3B12443  20.231  30.180   5.209  0.1832 -0.1069 -0.2327
    1DIPC   C4B12444  20.581  30.340   5.301  0.2601 -0.2927 -0.0014
    1DIPC   NC312445  25.606  17.608   5.565  0.2383  0.0572 -0.1162
    1DIPC   PO412446  25.580  18.018   5.779 -0.0701  0.2978 -0.1712
    1DIPC   GL112447  25.244  18.228   5.562  0.2651  0.0593  0.2017
    1DIPC   GL212448  25.260  18.024   5.222 -0.1737 -0.2345  0.1638
    1DIPC   C1A12449  25.282  18.566   5.174 -0.0128  0.1876  0.0233
    1DIPC   D2A12450  25.153  19.033   5.187  0.2958  0.4066  0.0060
    1DIPC   D3A12451  25.205  19.320   4.877  0.0264  0.0822 -0.0310
    1DIPC   C4A12452  25.278  19.551   4.527 -0.0986  0.1286  0.0794
    1DIPC   C1B12453  24.997  17.979   4.951 -0.2686 -0.3432 -0.0213
    1DIPC   D2B12454  24.825  18.131   4.508  0.2496  0.0141  0.0231
    1DIPC   D3B12455  25.148  18.394   4.685  0.0063 -0.0940 -0.1072
    1DIPC   C4B12456  25.031  18.811   4.773 -0.2160 -0.2536  0.2930
    1DIPC   NC312457  16.847   1.458   6.886 -0.0550  0.1048  0.0741
    1DIPC   PO412458  16.431   1.250   7.192 -0.2492 -0.0283  0.4909
    1DIPC   GL112459  16.303   1.312   6.842 -0.1212 -0.0142  0.2245
    1DIPC   GL212460  16.208   1.592   6.655 -0.1170 -0.1660 -0.0525
    1DIPC   C1A12461  16.429   1.210   6.395  0.0347 -0.1087  0.0385
    1DIPC   D2A12462  16.195   1.119   5.965  0.3367 -0.1444 -0.2884
    1DIPC   D3A12463  16.585   0.892   5.778 -0.0299 -0.0122  0.0473
    1DIPC   C4A12464  16.599   0.768   5.284  0.1522 -0.1630 -0.2063
    1DIPC   C1B12465  16.336   1.714   6.260  0.2728  0.0039  0.3750
    1DIPC   D2B12466  16.282   1.673   5.823  0.0329  0.0180 -0.0975
    1DIPC   D3B12467  16.278   2.184   5.560  0.1202  0.0444 -0.0831
    1DIPC   C4B12468  16.607   2.510   5.429  0.3115  0.2562  0.1491
    1DIPC   NC312469  28.924  26.020   6.325 -0.3343 -0.0123  0.1321
    1DIPC   PO412470  28.482  26.267   6.188  0.0922  0.0314 -0.4304
    1DIPC   GL112471  28.784  26.344   5.823 -0.0470 -0.3706  0.3148
    1DIPC   GL212472  28.738  26.180   5.515 -0.2048 -0.2418 -0.0805
    1DIPC   C1A12473  28.746  26.734   5.504 -0.0788 -0.0937 -0.1320
    1DIPC   D2A12474  28.844  27.188   5.316 -0.2573 -0.2503  0.1020
    1DIPC   D3A12475  29.238  27.173   5.079  0.1035  0.1995 -0.0435
    1DIPC   C4A12476  29.469  27.561   5.036 -0.1548 -0.0653  0.1247
    1DIPC   C1B12477  28.363  26.069   5.511 -0.0182  0.0987  0.0719
    1DIPC   D2B12478  27.948  25.969   5.536 -0.0732  0.0781 -0.1708
    1DIPC   D3B12479  27.931  26.054   5.112 -0.2309 -0.2387 -0.2029
    1DIPC   C4B12480  27.753  26.480   4.879  0.0407  0.2655  0.0611
    1DIPC   NC312481   9.058   6.653   7.369 -0.0289  0.0174 -0.0290
    1DIPC   PO412482   9.247   6.428   7.098  0.1241 -0.1359  0.2585
    1DIPC   GL112483   9.177   6.442   6.647  0.2960  0.3865  0.0285
    1DIPC   GL212484   9.044   6.696   6.440  0.3190 -0.2078  0.1351
    1DIPC   C1A12485   9.174   6.335   6.207 -0.0388  0.3614 -0.0183
    1DIPC   D2A12486   8.955   6.125   5.902 -0.1399  0.1932 -0.0190
    1DIPC   D3A12487   9.005   6.037   5.509  0.0585 -0.1215 -0.1174
    1DIPC   C4A12488   9.179   5.659   5.315  0.0931 -0.0210 -0.1631
    1DIPC   C1B12489   9.380   6.816   6.244  0.1499  0.1414  0.1746
    1DIPC   D2B12490   9.650   6.762   5.905 -0.3206 -0.2150  0.0741
    1DIPC   D3B12491  10.126   6.847   5.722  0.1267 -0.1073  0.1895
    1DIPC   C4B12492  10.262   6.817   5.329 -0.0875  0.2599  0.1516
    1DIPC   NC312493  23.828  21.290   6.477  0.0405 -0.2332 -0.5162
    1DIPC   PO412494  23.340  21.223   6.326  0.1750 -0.0905  0.0189
    1DIPC   GL112495  23.624  21.449   5.975  0.1621  0.0500  0.2841
    1DIPC   GL212496  23.791  21.743   6.026  0.0793 -0.0110 -0.1731
    1DIPC   C1A12497  23.687  21.573   5.489 -0.1929 -0.0769 -0.0900
    1DIPC   D2A12498  23.446  21.825   5.087  0.0096 -0.2066  0.1040
    1DIPC   D3A12499  23.644  21.921   4.691  0.0169 -0.0453 -0.0909
    1DIPC   C4A12500  24.027  21.960   4.722  0.0042 -0.0369  0.2058
    1DIPC   C1B12501  24.012  21.911   5.680 -0.1871  0.1053 -0.2748
    1DIPC   D2B12502  23.983  22.203   5.310  0.0407  0.2060 -0.0101
    1DIPC   D3B12503  24.047  21.714   5.185  0.0319  0.1398 -0.0049
    1DIPC   C4B12504  24.306  21.536   5.452 -0.1103  0.2731  0.1602
    1DIPC   NC312505   3.049  24.053   5.832  0.0925  0.1051 -0.0298
    1DIPC   PO412506   2.852  24.339   5.536 -0.1229  0.2654  0.2477
    1DIPC   GL112507   3.029  24.481   5.217 -0.0749 -0.2301 -0.1992
    1DIPC   GL212508   3.374  24.420   5.103  0.1189 -0.0358 -0.2082
    1DIPC   C1A12509   3.064  24.713   4.847 -0.0278 -0.0357 -0.0239
    1DIPC   D2A12510   2.836  24.904   4.436 -0.1622  0.1769 -0.2419
    1DIPC   D3A12511   2.649  25.056   4.128 -0.3787 -0.1806 -0.0123
    1DIPC   C4A12512   2.556  25.506   4.032  0.0816 -0.2472 -0.2682
    1DIPC   C1B12513   3.182  24.282   4.741 -0.2525  0.1199  0.0246
    1DIPC   D2B12514   2.769  24.470   4.559  0.3020  0.1136  0.5493
    1DIPC   D3B12515   2.849  24.358   4.078 -0.2611  0.2598  0.3152
    1DIPC   C4B12516   2.979  24.683   3.933 -0.1394 -0.1521 -0.0384
    1DIPC   NC312517   1.197  20.309   5.373  0.1783  0.0809  0.3770
    1DIPC   PO412518   1.581  20.207   5.092 -0.1346  0.1352  0.0089
    1DIPC   GL112519   1.540  20.079   4.708 -0.1766 -0.1822 -0.0114
    1DIPC   GL212520   1.813  20.147   4.470 -0.1931  0.4408 -0.1062
    1DIPC   C1A12521   1.274  20.091   4.338 -0.0539  0.4129 -0.3912
    1DIPC   D2A12522   0.904  19.941   4.216  0.2113  0.1792 -0.3431
    1DIPC   D3A12523   0.507  20.057   4.036 -0.0626 -0.1297  0.1187
    1DIPC   C4A12524   0.480  19.821   3.703 -0.3038 -0.1539  0.3797
    1DIPC   C1B12525   1.661  20.277   4.120  0.0713 -0.1281  0.3038
    1DIPC   D2B12526   1.779  20.139   3.675 -0.0123 -0.0224 -0.3075
    1DIPC   D3B12527   1.411  20.397   3.548  0.0278 -0.1524  0.0090
    1DIPC   C4B12528   1.553  20.716   3.221  0.2479  0.1537 -0.3888
    1DIPC   NC312529  29.282   3.912   6.574 -0.0765  0.0430  0.2478
    1DIPC   PO412530  29.279   4.063   6.029  0.1308 -0.1553 -0.2881
    1DIPC   GL112531  29.286   4.065   5.628  0.1008  0.0153  0.4816
    1DIPC   GL212532  28.989   4.001   5.521  0.1069  0.0324  0.1229
    1DIPC   C1A12533  29.627   3.900   5.279  0.0680 -0.2464  0.1718
    1DIPC   D2A12534  29.858   4.187   4.986  0.2527  0.1039 -0.0122
    1DIPC   D3A12535  29.679   4.413   4.577 -0.3845  0.1148  0.0645
    1DIPC   C4A12536  29.765   4.763   4.414  0.0457  0.4188 -0.3439
    1DIPC   C1B12537  29.032   4.066   5.093 -0.0015  0.0322  0.1039
    1DIPC   D2B12538  29.329   4.176   4.844 -0.4011 -0.0455 -0.2401
    1DIPC   D3B12539  29.436   4.692   4.879 -0.5872 -0.3180  0.0215
    1DIPC   C4B12540  29.145   5.050   4.769 -0.0902  0.0916 -0.1558
    1DIPC   NC312541  26.914  28.572   6.586 -0.2756  0.0028  0.4046
    1DIPC   PO412542  27.017  29.014   6.530 -0.4043  0.1658  0.0524
    1DIPC   GL112543  26.856  28.956   6.003 -0.1615 -0.0031  0.0874
    1DIPC   GL212544  26.582  28.689   6.051 -0.2975 -0.2015  0.0007
    1DIPC   C1A12545  26.842  28.806   5.557 -0.0230 -0.0287 -0.1858
    1DIPC   D2A12546  26.550  28.651   5.453 -0.0975 -0.0336  0.1587
    1DIPC   D3A12547  26.580  29.157   5.315 -0.3151 -0.2661  0.0463
    1DIPC   C4A12548  26.704  29.218   4.790 -0.0734  0.1646  0.0140
    1DIPC   C1B12549  26.214  28.568   5.834 -0.0720 -0.0597  0.0431
    1DIPC   D2B12550  25.944  28.486   5.548  0.0628 -0.1933 -0.4127
    1DIPC   D3B12551  25.538  28.520   5.713  0.2527 -0.1373  0.2171
    1DIPC   C4B12552  25.114  28.541   5.447  0.3302  0.0082  0.1312
    1DIPC   NC312553   3.750  19.327   5.258  0.1713 -0.1912 -0.3385
    1DIPC   PO412554   4.248  19.266   5.378  0.0579  0.2351  0.0935
    1DIPC   GL112555   4.252  19.101   4.995 -0.1750 -0.1437  0.0778
    1DIPC   GL212556   4.464  18.866   4.945  0.2644 -0.0656  0.0536
    1DIPC   C1A12557   4.231  18.969   4.537 -0.0503  0.1171 -0.1632
    1DIPC   D2A12558   4.059  19.102   4.203 -0.0521 -0.3793 -0.0262
    1DIPC   D3A12559   4.504  19.007   4.118 -0.5985 -0.1816  0.0874
    1DIPC   C4A12560   4.643  19.116   3.779  0.0064  0.1225 -0.0020
    1DIPC   C1B12561   4.705  18.974   4.570 -0.0368  0.0278 -0.1637
    1DIPC   D2B12562   4.986  19.124   4.247  0.0898 -0.1973  0.0723
    1DIPC   D3B12563   4.803  19.512   4.047 -0.0731  0.1754  0.0222
    1DIPC   C4B12564   4.451  19.518   3.826  0.0480  0.1346 -0.1163
    1DIPC   NC312565   1.309   1.859   7.412 -0.0904  0.1901  0.1803
    1DIPC   PO412566   1.548   1.638   7.000  0.0737  0.2438  0.1880
    1DIPC   GL112567   1.430   1.453   6.509 -0.1602  0.1328  0.2788
    1DIPC   GL212568   1.565   1.413   6.203 -0.0398  0.1893 -0.0415
    1DIPC   C1A12569   1.075   1.338   6.137 -0.2006  0.1207  0.1424
    1DIPC   D2A12570   0.650   1.341   6.335 -0.3057  0.0081  0.0237
    1DIPC   D3A12571   0.564   1.520   6.003  0.2458  0.0638  0.1984
    1DIPC   C4A12572   0.926   1.628   5.817 -0.0235 -0.2385  0.1485
    1DIPC   C1B12573   1.423   1.599   5.859  0.1052 -0.2199  0.0227
    1DIPC   D2B12574   1.460   1.817   5.539  0.1900  0.0401 -0.1376
    1DIPC   D3B12575   1.555   1.476   5.339  0.0695 -0.0484 -0.0421
    1DIPC   C4B12576   1.968   1.437   5.244 -0.0297  0.0871  0.1677
    1DIPC   NC312577  28.849   1.572   6.615  0.0374  0.0801  0.3701
    1DIPC   PO412578  28.858   1.120   6.335 -0.0598  0.1016 -0.0999
    1DIPC   GL112579  28.963   1.267   5.953 -0.0873 -0.2325 -0.0124
    1DIPC   GL212580  29.049   0.980   5.729 -0.0213 -0.2289  0.1930
    1DIPC   C1A12581  29.154   1.467   5.593  0.0498  0.2454  0.0744
    1DIPC   D2A12582  29.543   1.650   5.623  0.1654  0.0651  0.0828
    1DIPC   D3A12583  29.718   1.692   5.120  0.0497 -0.0381 -0.0076
    1DIPC   C4A12584  29.692   2.020   4.850 -0.0594 -0.3822 -0.0524
    1DIPC   C1B12585  29.125   0.954   5.278 -0.1399  0.2992  0.0451
    1DIPC   D2B12586  29.371   0.658   5.075 -0.2430 -0.0045 -0.1345
    1DIPC   D3B12587  29.517   0.245   4.963 -0.1125 -0.0354  0.2480
    1DIPC   C4B12588  29.544  -0.141   5.079  0.0341 -0.1160 -0.2884
    1DIPC   NC312589   0.010  26.458   6.543  0.3154  0.2491  0.0535
    1DIPC   PO412590  -0.259  26.078   6.419 -0.0391 -0.1625  0.1775
    1DIPC   GL112591  -0.328  25.770   5.956 -0.3669 -0.1759  0.1968
    1DIPC   GL212592  -0.166  25.514   5.887 -0.0487  0.1897  0.2184
    1DIPC   C1A12593  -0.548  25.778   5.497  0.3799  0.0777 -0.0214
    1DIPC   D2A12594  -0.646  25.862   5.038  0.0057 -0.0398  0.1898
    1DIPC   D3A12595  -0.345  25.531   5.068  0.0708 -0.0282  0.2499
    1DIPC   C4A12596  -0.225  25.463   4.605 -0.0304  0.3245 -0.0976
    1DIPC   C1B12597   0.064  25.748   5.537  0.4631  0.0483  0.2834
    1DIPC   D2B12598   0.212  25.709   5.043  0.1156  0.0581 -0.2916
    1DIPC   D3B12599   0.387  25.330   5.300  0.0749  0.1045 -0.0284
    1DIPC   C4B12600   0.383  24.894   5.122  0.1797  0.1391 -0.1069
    1DIPC   NC312601   8.060   6.789   6.982 -0.2182  0.1185 -0.0892
    1DIPC   PO412602   8.271   6.453   7.134 -0.1361  0.2712 -0.0460
    1DIPC   GL112603   8.397   6.424   6.682 -0.0983 -0.2763 -0.1305
    1DIPC   GL212604   8.439   6.804   6.628  0.1532  0.1145  0.1168
    1DIPC   C1A12605   8.110   6.510   6.374  0.0478  0.1529 -0.0772
    1DIPC   D2A12606   7.678   6.654   6.306  0.1507 -0.3509  0.3077
    1DIPC   D3A12607   7.710   6.388   5.901  0.0162 -0.1346 -0.1525
    1DIPC   C4A12608   7.469   6.022   5.709 -0.0257 -0.0539  0.1230
    1DIPC   C1B12609   8.552   6.902   6.197 -0.2864  0.0075  0.2521
    1DIPC   D2B12610   8.576   6.979   5.709  0.1054 -0.4300 -0.1686
    1DIPC   D3B12611   8.278   6.873   5.498  0.1326 -0.0805  0.1210
    1DIPC   C4B12612   8.332   6.547   5.185 -0.0672 -0.2534 -0.0416
    1DIPC   NC312613   2.098   3.459   6.574 -0.1838  0.1595 -0.0799
    1DIPC   PO412614   2.565   3.404   6.595  0.3144 -0.0766 -0.1752
    1DIPC   GL112615   2.561   3.342   6.224  0.1343 -0.0127 -0.2026
    1DIPC   GL212616   2.643   3.018   6.133 -0.2736 -0.1457 -0.1921
    1DIPC   C1A12617   2.212   3.290   5.956  0.0068 -0.3657  0.0322
    1DIPC   D2A12618   2.029   3.102   5.574  0.0165 -0.3080 -0.0690
    1DIPC   D3A12619   2.015   2.677   5.511 -0.2363  0.0158  0.1759
    1DIPC   C4A12620   1.669   2.398   5.273 -0.2356  0.1610  0.0770
    1DIPC   C1B12621   2.529   2.670   5.843 -0.0231  0.1703 -0.1778
    1DIPC   D2B12622   2.443   2.363   5.415  0.1911 -0.1569 -0.0961
    1DIPC   D3B12623   2.894   2.572   5.302 -0.0727 -0.0620  0.0967
    1DIPC   C4B12624   3.087   2.934   5.356  0.0436  0.1544 -0.4474
    1DIPC   NC312625   0.494   8.080   6.899 -0.0294 -0.0742 -0.0785
    1DIPC   PO412626   0.836   8.150   6.618  0.1474 -0.0194 -0.1195
    1DIPC   GL112627   0.973   8.129   6.244  0.1499 -0.0127  0.2574
    1DIPC   GL212628   1.286   8.200   6.065  0.1970  0.0993  0.3802
    1DIPC   C1A12629   0.945   8.002   5.786 -0.0913  0.0404  0.1024
    1DIPC   D2A12630   0.676   8.028   5.335 -0.0248 -0.1896  0.0280
    1DIPC   D3A12631   0.776   8.542   5.223  0.1449  0.2206 -0.3383
    1DIPC   C4A12632   0.658   8.711   4.887  0.1253 -0.0506  0.0596
    1DIPC   C1B12633   1.526   7.842   5.967  0.0560 -0.1544  0.0212
    1DIPC   D2B12634   1.838   7.625   5.748 -0.1970 -0.1480 -0.1301
    1DIPC   D3B12635   2.030   7.949   5.988 -0.1100  0.1121 -0.1000
    1DIPC   C4B12636   2.361   7.977   5.815 -0.0162  0.0727  0.1576
    1DIPC   NC312637  17.621   0.351   7.108  0.2816  0.0885 -0.2448
    1DIPC   PO412638  17.944   0.131   6.995 -0.0995  0.0653  0.0450
    1DIPC   GL112639  17.953   0.205   6.652 -0.0926  0.0010  0.3128
    1DIPC   GL212640  17.767   0.317   6.536 -0.2290 -0.2450 -0.2497
    1DIPC   C1A12641  18.038   0.070   6.164 -0.3546  0.1565  0.1453
    1DIPC   D2A12642  17.858   0.305   5.787  0.1868 -0.1794  0.0012
    1DIPC   D3A12643  17.835   0.622   5.394 -0.0276  0.1470  0.0607
    1DIPC   C4A12644  17.811   0.458   4.994  0.0595  0.0302  0.2128
    1DIPC   C1B12645  17.602  -0.087   6.436  0.0894  0.5102  0.4446
    1DIPC   D2B12646  17.664  -0.230   5.987 -0.1011  0.0227  0.1984
    1DIPC   D3B12647  17.446  -0.323   5.476  0.0213  0.2278 -0.1235
    1DIPC   C4B12648  17.143  -0.059   5.326  0.3010 -0.0064 -0.0684
    1DIPC   NC312649   1.109   5.727   6.677 -0.1512 -0.2354  0.0527
    1DIPC   PO412650   0.934   5.624   6.205  0.4439  0.4107 -0.0543
    1DIPC   GL112651   0.955   5.477   5.831  0.2338  0.0718  0.0059
    1DIPC   GL212652   0.733   5.850   5.782  0.1455  0.3252 -0.1397
    1DIPC   C1A12653   0.897   5.554   5.360  0.0952 -0.1557 -0.1582
    1DIPC   D2A12654   0.828   5.731   4.974 -0.0005 -0.2581 -0.1483
    1DIPC   D3A12655   1.046   5.863   4.591  0.1009 -0.4047  0.3278
    1DIPC   C4A12656   1.127   6.310   4.421 -0.0283 -0.1603 -0.1043
    1DIPC   C1B12657   0.440   5.890   5.406  0.0644  0.2535 -0.2111
    1DIPC   D2B12658   0.373   5.863   4.834  0.1621  0.0272  0.0641
    1DIPC   D3B12659   0.550   5.608   4.498  0.0512 -0.0786 -0.2931
    1DIPC   C4B12660   0.473   5.087   4.420  0.1144  0.0981 -0.0188
    1DIPC   NC312661  20.227   5.481   7.171  0.2568 -0.3943  0.2484
    1DIPC   PO412662  19.968   5.144   7.291 -0.0410 -0.2415 -0.0775
    1DIPC   GL112663  20.019   5.203   6.797  0.0282 -0.0379 -0.2572
    1DIPC   GL212664  19.941   4.946   6.657  0.0927  0.1508  0.2159
    1DIPC   C1A12665  20.101   5.351   6.423  0.2583 -0.0393 -0.3915
    1DIPC   D2A12666  20.031   5.561   6.110 -0.1583  0.0640  0.1525
    1DIPC   D3A12667  19.801   5.639   5.821  0.0010  0.3006 -0.2991
    1DIPC   C4A12668  19.971   5.947   5.686  0.4040  0.2192  0.1857
    1DIPC   C1B12669  20.190   4.782   6.313 -0.0162 -0.0813  0.0780
    1DIPC   D2B12670  20.155   4.671   5.849 -0.0560  0.0130  0.0187
    1DIPC   D3B12671  20.428   4.947   5.665 -0.0518  0.1309 -0.1967
    1DIPC   C4B12672  20.218   5.327   5.612 -0.2586  0.0848 -0.0839
    1DIPC   NC312673  25.368  18.859   6.112  0.1329 -0.2675  0.0803
    1DIPC   PO412674  25.155  18.645   5.808  0.0368 -0.2309 -0.3292
    1DIPC   GL112675  24.791  18.656   5.554  0.0229  0.2726 -0.2072
    1DIPC   GL212676  24.512  18.872   5.648 -0.2110  0.3570 -0.1111
    1DIPC   C1A12677  24.742  18.531   5.133  0.1893 -0.1632 -0.1012
    1DIPC   D2A12678  24.641  18.583   4.740  0.0445 -0.1061 -0.1643
    1DIPC   D3A12679  24.329  18.491   4.667  0.1813 -0.0541  0.1390
    1DIPC   C4A12680  24.186  18.174   4.456 -0.2486  0.0654  0.0537
    1DIPC   C1B12681  24.595  19.082   5.283 -0.0267 -0.1675  0.0205
    1DIPC   D2B12682  24.724  19.199   4.893  0.0489  0.1778 -0.3684
    1DIPC   D3B12683  24.840  19.247   4.504  0.0045  0.1656 -0.0777
    1DIPC   C4B12684  24.729  19.329   4.176 -0.2960 -0.0105  0.0350
    1DIPC   NC312685   3.442  12.272   6.733  0.4858  0.1484  0.1207
    1DIPC   PO412686   3.389  11.993   6.333 -0.0483  0.0124 -0.0414
    1DIPC   GL112687   3.672  12.107   5.959  0.0007  0.0654 -0.0545
    1DIPC   GL212688   3.676  12.421   6.065 -0.2480  0.0169  0.4116
    1DIPC   C1A12689   3.687  12.222   5.584  0.0301 -0.1984 -0.2738
    1DIPC   D2A12690   3.643  12.409   5.212 -0.3577 -0.1949  0.3069
    1DIPC   D3A12691   3.273  12.607   5.485 -0.4335 -0.1452  0.1264
    1DIPC   C4A12692   2.926  12.835   5.374 -0.0117  0.1125  0.0531
    1DIPC   C1B12693   3.670  12.763   5.787  0.0874  0.0300 -0.0115
    1DIPC   D2B12694   3.362  13.044   5.733  0.1135 -0.2940  0.2169
    1DIPC   D3B12695   3.735  13.294   5.641  0.1445 -0.0293  0.0876
    1DIPC   C4B12696   3.743  13.419   5.248  0.1276  0.0705 -0.3902
    1DIPC   NC312697  14.993  23.195   6.529 -0.2111 -0.1405 -0.1844
    1DIPC   PO412698  15.322  23.545   6.612 -0.0290 -0.0139 -0.1750
    1DIPC   GL112699  15.099  23.683   6.328 -0.2773  0.1913 -0.0125
    1DIPC   GL212700  15.136  23.453   6.012 -0.1051  0.0869 -0.0228
    1DIPC   C1A12701  14.989  23.922   5.980 -0.1471  0.2487  0.6627
    1DIPC   D2A12702  14.754  23.932   5.636  0.2014  0.0641 -0.0119
    1DIPC   D3A12703  15.047  23.822   5.338 -0.0327  0.2858  0.1619
    1DIPC   C4A12704  15.280  23.378   5.272  0.2811 -0.0250  0.0579
    1DIPC   C1B12705  14.865  23.454   5.601  0.1915  0.1520  0.2828
    1DIPC   D2B12706  14.655  23.516   5.231 -0.0478  0.0626  0.2212
    1DIPC   D3B12707  14.553  23.835   5.048  0.1312  0.1375 -0.0416
    1DIPC   C4B12708  14.577  24.264   5.239 -0.2976  0.1216 -0.0309
    1DIPC   NC312709  25.736   0.862   6.741  0.2089 -0.1357 -0.0036
    1DIPC   PO412710  25.432   0.578   6.605  0.0495  0.0320  0.0212
    1DIPC   GL112711  25.424   0.792   6.215  0.0583 -0.0646 -0.1861
    1DIPC   GL212712  25.143   0.957   6.225 -0.0078  0.1378 -0.1974
    1DIPC   C1A12713  25.509   0.910   5.797 -0.0281 -0.1747  0.2154
    1DIPC   D2A12714  25.584   1.217   5.474  0.0154 -0.3389 -0.1536
    1DIPC   D3A12715  26.002   1.316   5.560  0.0716 -0.3441  0.1949
    1DIPC   C4A12716  26.331   0.948   5.482 -0.1867 -0.3018  0.3130
    1DIPC   C1B12717  25.613   1.281   6.118  0.2104 -0.1092 -0.1810
    1DIPC   D2B12718  25.557   1.588   5.772 -0.0776  0.0526  0.2124
    1DIPC   D3B12719  25.689   2.087   5.675  0.0617 -0.2406 -0.1380
    1DIPC   C4B12720  25.415   2.248   5.327  0.0691 -0.2440  0.1103
    1DIPC   NC312721   4.734  28.125   7.836  0.1851  0.0899 -0.1152
    1DIPC   PO412722   4.364  28.489   7.902 -0.0763 -0.0890  0.2461
    1DIPC   GL112723   4.477  28.523   7.460  0.0919  0.2272  0.0467
    1DIPC   GL212724   4.469  28.792   7.291 -0.0987 -0.2458 -0.0982
    1DIPC   C1A12725   4.716  28.378   7.175 -0.1115  0.1188  0.3447
    1DIPC   D2A12726   4.934  28.258   6.779  0.1966  0.0067 -0.3780
    1DIPC   D3A12727   4.596  28.207   6.544 -0.2735 -0.1459 -0.0969
    1DIPC   C4A12728   4.679  28.415   6.222  0.1333 -0.2281 -0.1043
    1DIPC   C1B12729   4.609  29.128   6.912  0.1238  0.0069  0.3291
    1DIPC   D2B12730   4.907  29.315   6.620  0.0924 -0.1089 -0.0495
    1DIPC   D3B12731   4.698  29.327   6.188 -0.0075 -0.0199 -0.0323
    1DIPC   C4B12732   4.368  29.196   5.971  0.0531  0.0779 -0.1122
    1DIPC   NC312733  17.874   4.011   8.119  0.2839  0.1443  0.2220
    1DIPC   PO412734  17.728   3.965   7.676 -0.0725  0.2606  0.2899
    1DIPC   GL112735  17.665   3.799   7.246 -0.2187 -0.1068  0.1230
    1DIPC   GL212736  17.480   3.985   7.073  0.1613  0.0383 -0.1361
    1DIPC   C1A12737  17.776   3.797   6.674 -0.0738  0.2125 -0.1354
    1DIPC   D2A12738  17.738   4.006   6.284  0.0349 -0.0075 -0.1863
    1DIPC   D3A12739  17.567   3.898   5.956  0.3919 -0.1818 -0.0298
    1DIPC   C4A12740  17.750   3.984   5.585 -0.0668  0.1713  0.3445
    1DIPC   C1B12741  17.284   3.757   6.654  0.1987 -0.1832  0.1774
    1DIPC   D2B12742  17.287   3.677   6.328  0.0024  0.0567 -0.2902
    1DIPC   D3B12743  17.332   3.428   5.971  0.1894  0.0598  0.1808
    1DIPC   C4B12744  17.415   3.579   5.622 -0.3541  0.1262 -0.0139
    1DIPC   NC312745  19.195   5.804   6.895 -0.0967 -0.1087 -0.3240
    1DIPC   PO412746  18.671   6.083   7.067 -0.0626 -0.1723 -0.1596
    1DIPC   GL112747  18.555   6.140   6.612  0.1619 -0.0418 -0.1308
    1DIPC   GL212748  18.390   6.435   6.464  0.1139 -0.2412 -0.3801
    1DIPC   C1A12749  18.198   5.997   6.333  0.2593  0.1517 -0.2223
    1DIPC   D2A12750  17.964   5.892   6.046  0.1483  0.0184 -0.1196
    1DIPC   D3A12751  17.569   6.064   6.040 -0.0255  0.2616 -0.2623
    1DIPC   C4A12752  17.584   6.277   6.448 -0.0168  0.0132  0.2134
    1DIPC   C1B12753  18.557   6.288   6.109 -0.0804  0.2030  0.1061
    1DIPC   D2B12754  18.300   6.255   5.735  0.0799  0.0345  0.2889
    1DIPC   D3B12755  17.845   6.263   5.684 -0.2282 -0.0914  0.1000
    1DIPC   C4B12756  17.874   6.244   5.168  0.3524 -0.2291  0.0156
    1DIPC   NC312757  10.621   2.364   7.620  0.0723 -0.3075 -0.2033
    1DIPC   PO412758  10.463   2.591   7.257  0.4133 -0.4212  0.0418
    1DIPC   GL112759  10.355   2.367   6.790  0.1287  0.3179 -0.3455
    1DIPC   GL212760  10.192   2.044   6.729  0.2759 -0.0579 -0.0992
    1DIPC   C1A12761  10.384   2.472   6.462 -0.0292 -0.0749 -0.4508
    1DIPC   D2A12762  10.530   2.565   6.076  0.0894  0.2397  0.1666
    1DIPC   D3A12763  10.476   2.363   5.654  0.3637 -0.0267  0.0920
    1DIPC   C4A12764  10.647   1.975   5.570 -0.0841 -0.1172  0.1678
    1DIPC   C1B12765  10.189   2.035   6.329  0.0590  0.1353  0.4907
    1DIPC   D2B12766   9.881   2.238   6.045 -0.0713 -0.1387  0.0859
    1DIPC   D3B12767  10.019   2.674   5.987  0.0738 -0.0053 -0.0979
    1DIPC   C4B12768  10.155   2.843   5.657 -0.3643 -0.1915 -0.0660
    1DIPC   NC312769  20.328  27.632   6.420  0.0052  0.2292 -0.3144
    1DIPC   PO412770  19.957  27.475   6.332 -0.0794 -0.0045  0.2366
    1DIPC   GL112771  19.935  27.442   5.928  0.3313  0.0292  0.0578
    1DIPC   GL212772  20.203  27.564   5.842 -0.0989 -0.1365  0.4886
    1DIPC   C1A12773  20.000  27.228   5.435 -0.0596 -0.2508 -0.0655
    1DIPC   D2A12774  20.144  26.888   5.172 -0.1105  0.2731  0.0028
    1DIPC   D3A12775  20.362  26.844   4.880  0.1355  0.1268  0.1605
    1DIPC   C4A12776  20.424  26.385   4.786  0.0131 -0.1243 -0.5232
    1DIPC   C1B12777  19.882  27.738   5.529  0.0963  0.2043  0.2746
    1DIPC   D2B12778  19.491  27.764   5.238  0.1013 -0.0548  0.0106
    1DIPC   D3B12779  19.261  28.074   5.055 -0.0302  0.0053 -0.0776
    1DIPC   C4B12780  18.855  28.083   4.724 -0.0789 -0.0563 -0.0072
    1DIPC   NC312781   3.177  17.383   5.633  0.1209  0.2247 -0.1204
    1DIPC   PO412782   3.178  17.718   5.374  0.3794 -0.0349 -0.3567
    1DIPC   GL112783   3.499  17.471   5.154  0.1641 -0.0619 -0.1762
    1DIPC   GL212784   3.670  17.668   5.001 -0.3147 -0.2796  0.1699
    1DIPC   C1A12785   3.335  17.522   4.675 -0.0458 -0.2918 -0.1020
    1DIPC   D2A12786   3.385  17.407   4.296 -0.2426 -0.2155  0.0958
    1DIPC   D3A12787   3.800  17.315   4.058 -0.0996  0.1561 -0.2641
    1DIPC   C4A12788   3.915  16.882   3.800 -0.0285 -0.1464  0.1972
    1DIPC   C1B12789   3.767  17.766   4.576 -0.0112  0.2433 -0.0921
    1DIPC   D2B12790   4.232  17.530   4.438  0.0895 -0.0084 -0.0351
    1DIPC   D3B12791   4.166  17.560   4.752  0.0308  0.3332  0.1003
    1DIPC   C4B12792   4.124  17.975   4.789  0.0174 -0.0030  0.1719
    1DIPC   NC312793   5.946  18.211   5.974  0.1636 -0.3075  0.3100
    1DIPC   PO412794   5.605  18.029   5.780  0.1197  0.0419 -0.3417
    1DIPC   GL112795   5.770  17.927   5.456 -0.3380  0.2146  0.1544
    1DIPC   GL212796   5.613  17.646   5.366  0.0935 -0.0554  0.0543
    1DIPC   C1A12797   6.191  17.719   5.246 -0.0006 -0.1221  0.0445
    1DIPC   D2A12798   6.635  17.553   5.180 -0.0316 -0.0183  0.1928
    1DIPC   D3A12799   6.861  17.863   4.878 -0.0321  0.3135  0.0059
    1DIPC   C4A12800   6.549  17.937   4.559  0.2650  0.3890  0.1239
    1DIPC   C1B12801   5.740  17.620   4.980  0.1842 -0.0108  0.3771
    1DIPC   D2B12802   5.867  17.467   4.555 -0.2377 -0.1444  0.1694
    1DIPC   D3B12803   6.276  17.518   4.749 -0.0584  0.0241  0.2732
    1DIPC   C4B12804   6.724  17.417   4.605  0.5285 -0.1450  0.1650
    1DIPC   NC312805  25.075   6.326   6.445 -0.3277 -0.2515 -0.1672
    1DIPC   PO412806  25.171   6.800   6.561  0.1046  0.0434  0.0193
    1DIPC   GL112807  25.398   6.693   6.140  0.1436 -0.2127 -0.0138
    1DIPC   GL212808  25.157   6.525   5.949 -0.2123 -0.3022 -0.1395
    1DIPC   C1A12809  25.571   6.744   5.811 -0.0950 -0.0076  0.1861
    1DIPC   D2A12810  25.963   6.998   5.539 -0.0903  0.1074 -0.0750
    1DIPC   D3A12811  25.962   7.111   5.079  0.1316 -0.1481 -0.0739
    1DIPC   C4A12812  25.975   7.433   4.768  0.0614 -0.1200 -0.1830
    1DIPC   C1B12813  25.120   6.828   5.667 -0.1533 -0.2000 -0.1084
    1DIPC   D2B12814  24.792   7.011   5.442  0.2437  0.0145  0.2872
    1DIPC   D3B12815  24.840   6.890   5.040  0.0878  0.1872  0.1380
    1DIPC   C4B12816  24.582   7.049   4.721  0.4173  0.0261 -0.0884
    1DIPC   NC312817  20.954  26.596   6.816  0.2138 -0.1151 -0.1917
    1DIPC   PO412818  20.871  26.900   6.562  0.1893  0.1076 -0.1030
    1DIPC   GL112819  20.696  26.824   6.122 -0.4318  0.0863  0.3837
    1DIPC   GL212820  20.347  26.664   5.972 -0.0169  0.3116  0.2159
    1DIPC   C1A12821  20.841  26.727   5.667  0.3230  0.2270 -0.0596
    1DIPC   D2A12822  20.637  26.626   5.267  0.1733  0.2195 -0.0791
    1DIPC   D3A12823  20.378  26.951   5.590 -0.1407 -0.0763  0.1158
    1DIPC   C4A12824  20.593  27.243   5.801 -0.4579  0.1317 -0.2316
    1DIPC   C1B12825  20.544  26.235   5.949 -0.1550 -0.1145 -0.1104
    1DIPC   D2B12826  20.913  26.170   5.616  0.0759  0.2874  0.0886
    1DIPC   D3B12827  20.887  25.719   5.507 -0.0108  0.0226 -0.1568
    1DIPC   C4B12828  20.844  25.621   5.026  0.2324 -0.0953 -0.2109
    1DIPC   NC312829   2.522  20.511   5.592 -0.1086 -0.0937  0.0398
    1DIPC   PO412830   2.830  20.802   5.233 -0.2392 -0.2500 -0.1415
    1DIPC   GL112831   2.646  20.940   4.900 -0.1772  0.3263 -0.0938
    1DIPC   GL212832   2.686  20.819   4.608 -0.0946  0.0903  0.2970
    1DIPC   C1A12833   2.556  21.271   4.479  0.1919 -0.0235  0.0093
    1DIPC   D2A12834   2.366  21.467   4.133  0.1668 -0.0296 -0.1561
    1DIPC   D3A12835   2.638  21.797   4.098 -0.1470  0.2075  0.0799
    1DIPC   C4A12836   2.952  21.953   4.376 -0.0496 -0.2568 -0.1950
    1DIPC   C1B12837   2.358  20.484   4.444 -0.0271 -0.2431 -0.0469
    1DIPC   D2B12838   2.280  20.294   4.020  0.0173 -0.0794  0.1981
    1DIPC   D3B12839   2.015  20.649   4.128 -0.0180  0.1904 -0.0715
    1DIPC   C4B12840   1.798  20.635   3.718  0.0667  0.2584 -0.0954
    1DIPC   NC312841  11.963  29.072   7.110  0.1977  0.0035 -0.2630
    1DIPC   PO412842  11.623  29.289   7.064  0.0263  0.2347  0.0247
    1DIPC   GL112843  11.729  29.157   6.645  0.1429 -0.0318  0.0845
    1DIPC   GL212844  11.722  28.835   6.470  0.3582 -0.0029 -0.3198
    1DIPC   C1A12845  11.802  29.478   6.297  0.2096  0.3234  0.2682
    1DIPC   D2A12846  11.870  29.830   6.057  0.0561 -0.0391  0.0147
    1DIPC   D3A12847  11.975  30.003   5.665 -0.3132  0.3365 -0.2245
    1DIPC   C4A12848  12.252  29.878   5.421  0.0277 -0.2025  0.4267
    1DIPC   C1B12849  11.965  28.971   6.194  0.0384 -0.1515 -0.1243
    1DIPC   D2B12850  12.440  29.140   6.078  0.0774  0.3122  0.2544
    1DIPC   D3B12851  12.726  28.899   5.795  0.1026 -0.0799  0.4070
    1DIPC   C4B12852  12.884  29.185   5.520  0.2065  0.0762 -0.1207
    1DIPC   NC312853   8.093   1.448   6.998  0.0293  0.1489  0.0835
    1DIPC   PO412854   8.273   1.437   6.651 -0.0037 -0.1859  0.4748
    1DIPC   GL112855   7.979   1.252   6.344 -0.1619  0.0509 -0.0466
    1DIPC   GL212856   8.117   1.441   6.175 -0.1426 -0.1822 -0.0921
    1DIPC   C1A12857   7.683   1.259   6.078 -0.0114  0.0513 -0.0320
    1DIPC   D2A12858   7.489   1.129   5.749 -0.0603  0.0281  0.3089
    1DIPC   D3A12859   7.178   1.190   6.053 -0.1007  0.1939 -0.1667
    1DIPC   C4A12860   7.318   1.395   6.397  0.0157 -0.0973  0.0590
    1DIPC   C1B12861   8.231   1.250   5.837 -0.2061 -0.1653  0.0656
    1DIPC   D2B12862   8.011   1.233   5.455  0.0055  0.2900  0.3317
    1DIPC   D3B12863   8.041   1.047   5.084 -0.0224 -0.2510 -0.0022
    1DIPC   C4B12864   8.061   0.568   4.984  0.0562 -0.0870  0.0744
    1DIPC   NC312865  27.310   3.854   6.181 -0.1965  0.3689 -0.0066
    1DIPC   PO412866  27.543   3.505   6.217 -0.0103 -0.0251  0.0064
    1DIPC   GL112867  27.348   3.417   5.828 -0.0352  0.0960 -0.1348
    1DIPC   GL212868  27.394   3.731   5.696 -0.1814  0.1451  0.2301
    1DIPC   C1A12869  27.335   3.031   5.547 -0.2495  0.1039  0.0250
    1DIPC   D2A12870  27.159   2.624   5.294  0.0579  0.3548  0.1884
    1DIPC   D3A12871  26.819   2.703   5.027 -0.1422 -0.4478 -0.4312
    1DIPC   C4A12872  26.363   2.573   5.149 -0.0699  0.0875  0.4169
    1DIPC   C1B12873  27.706   3.441   5.411  0.1936  0.1209 -0.1785
    1DIPC   D2B12874  28.042   3.081   5.372  0.3151 -0.0233  0.0578
    1DIPC   D3B12875  27.961   3.151   4.947 -0.0896 -0.2995  0.5187
    1DIPC   C4B12876  28.165   3.391   4.686  0.1884 -0.1143 -0.2113
    1DIPC   NC312877  29.663   3.185   6.785 -0.3891 -0.1258  0.0787
    1DIPC   PO412878  29.487   3.335   6.472  0.2250  0.0035  0.1842
    1DIPC   GL112879  29.749   3.631   6.099  0.2348 -0.0755  0.1883
    1DIPC   GL212880  29.726   3.970   6.142  0.0242 -0.0436  0.1124
    1DIPC   C1A12881  29.711   3.585   5.627 -0.2259  0.2584  0.2944
    1DIPC   D2A12882  29.304   3.573   5.383 -0.2935 -0.1181  0.2075
    1DIPC   D3A12883  29.378   3.202   5.099 -0.1995  0.1755  0.1854
    1DIPC   C4A12884  29.264   3.182   4.559 -0.0384 -0.1787  0.1500
    1DIPC   C1B12885  29.946   4.046   5.723  0.1635  0.3286  0.2418
    1DIPC   D2B12886  30.175   3.723   5.408  0.0166 -0.1837 -0.0695
    1DIPC   D3B12887  29.783   3.502   5.115  0.0498  0.0618 -0.2589
    1DIPC   C4B12888  29.655   3.544   4.704 -0.0797 -0.0082 -0.1743
    1DIPC   NC312889   9.700  24.359   6.140 -0.0604  0.0358 -0.2403
    1DIPC   PO412890   9.405  24.686   6.166  0.1915  0.1799 -0.0750
    1DIPC   GL112891   9.362  24.463   5.683 -0.1917  0.0758 -0.0847
    1DIPC   GL212892   9.557  24.625   5.432 -0.1385  0.0858  0.2884
    1DIPC   C1A12893   9.469  24.088   5.353  0.0902  0.1086  0.0369
    1DIPC   D2A12894   9.763  23.863   5.238  0.2193 -0.1025  0.0350
    1DIPC   D3A12895   9.535  23.975   4.869 -0.1189  0.0443  0.1644
    1DIPC   C4A12896   9.030  24.064   4.821  0.2726 -0.0406 -0.2389
    1DIPC   C1B12897   9.758  24.391   5.096 -0.6681 -0.2114 -0.0017
    1DIPC   D2B12898   9.890  24.332   4.652  0.0021 -0.2210  0.0787
    1DIPC   D3B12899  10.308  24.405   4.857 -0.2892 -0.0725  0.4052
    1DIPC   C4B12900  10.618  24.588   4.671 -0.1219  0.1464  0.0546
    1DIPC   NC312901  25.319  11.023   5.860  0.2936  0.1498 -0.1470
    1DIPC   PO412902  24.881  10.980   5.644  0.1389 -0.3409 -0.1052
    1DIPC   GL112903  24.700  11.198   5.277  0.1780 -0.0383  0.0822
    1DIPC   GL212904  25.017  11.211   5.172 -0.3235 -0.1216 -0.0285
    1DIPC   C1A12905  24.737  11.503   4.811  0.2399  0.0006 -0.1191
    1DIPC   D2A12906  24.685  11.408   4.487  0.1917 -0.0957 -0.2570
    1DIPC   D3A12907  24.268  11.378   4.513 -0.2042  0.0946  0.2491
    1DIPC   C4A12908  24.019  11.672   4.558 -0.3713 -0.1771 -0.2652
    1DIPC   C1B12909  24.967  11.064   4.692 -0.1009 -0.0824 -0.1311
    1DIPC   D2B12910  24.927  10.817   4.372  0.0367 -0.0967  0.1317
    1DIPC   D3B12911  25.052  10.338   4.132  0.1657 -0.0877 -0.1269
    1DIPC   C4B12912  25.218  10.147   4.486 -0.0293 -0.0446 -0.0677
    1DIPC   NC312913  12.670   2.183   7.851  0.0310  0.0305  0.2446
    1DIPC   PO412914  12.475   1.971   7.613  0.1428  0.0668 -0.0222
    1DIPC   GL112915  12.481   2.131   7.166 -0.3306  0.0849  0.0505
    1DIPC   GL212916  12.729   2.207   6.883  0.1226  0.3224 -0.2640
    1DIPC   C1A12917  12.308   2.003   6.755 -0.0623  0.0188  0.2487
    1DIPC   D2A12918  12.210   1.884   6.249  0.1360 -0.1932  0.0933
    1DIPC   D3A12919  12.560   1.683   5.973  0.2408 -0.1213 -0.2480
    1DIPC   C4A12920  12.571   1.251   6.002 -0.0254  0.1287  0.4555
    1DIPC   C1B12921  12.973   2.292   6.590  0.1369 -0.1563 -0.2507
    1DIPC   D2B12922  12.908   2.526   6.180  0.2338  0.2575  0.2732
    1DIPC   D3B12923  13.282   2.460   6.120 -0.1530 -0.0216 -0.1842
    1DIPC   C4B12924  13.285   2.201   5.707  0.1410 -0.0305  0.0621
    1DIPC   NC312925   1.826  17.682   5.664  0.0367  0.0306 -0.3428
    1DIPC   PO412926   1.776  17.341   5.225 -0.0366  0.1274 -0.0391
    1DIPC   GL112927   1.588  17.340   4.857  0.1692 -0.0791 -0.0772
    1DIPC   GL212928   1.631  17.044   4.877  0.2318  0.1225  0.1118
    1DIPC   C1A12929   1.323  17.483   4.548  0.0035  0.1491 -0.0182
    1DIPC   D2A12930   1.048  17.739   4.205  0.1148 -0.1643 -0.1910
    1DIPC   D3A12931   1.060  17.863   3.852  0.2577  0.2721  0.1312
    1DIPC   C4A12932   0.841  17.911   3.373 -0.0018 -0.1063  0.1173
    1DIPC   C1B12933   1.622  16.981   4.366  0.1968  0.0996  0.1827
    1DIPC   D2B12934   1.638  17.242   4.029  0.1373 -0.2979 -0.0391
    1DIPC   D3B12935   2.079  17.256   3.909  0.2093 -0.1464 -0.0402
    1DIPC   C4B12936   2.280  17.381   3.521  0.1089 -0.1452 -0.0158
    1DIPC   NC312937   5.258  11.527   6.820 -0.2681  0.2556  0.1295
    1DIPC   PO412938   4.924  11.325   6.575  0.2609 -0.0245  0.0647
    1DIPC   GL112939   4.966  11.314   6.080 -0.1578 -0.0290  0.4280
    1DIPC   GL212940   5.349  11.291   5.984  0.3701  0.0921 -0.2938
    1DIPC   C1A12941   4.749  11.043   5.873 -0.1383  0.0592  0.0181
    1DIPC   D2A12942   5.033  11.040   5.576  0.0303  0.1303  0.1037
    1DIPC   D3A12943   5.027  10.969   5.160 -0.2134 -0.0571  0.0927
    1DIPC   C4A12944   4.697  11.130   4.952  0.2184 -0.1108  0.2121
    1DIPC   C1B12945   5.767  11.199   5.746 -0.3167 -0.0283  0.0313
    1DIPC   D2B12946   5.877  11.251   5.297 -0.1057 -0.3119  0.0248
    1DIPC   D3B12947   5.629  11.031   4.990 -0.1392  0.0239  0.1390
    1DIPC   C4B12948   5.770  11.082   4.574  0.1316 -0.4358  0.1303
    1DIPC   NC312949  15.032   3.311   7.446  0.0775  0.1660  0.0204
    1DIPC   PO412950  15.273   3.032   7.260  0.3291  0.0139  0.2814
    1DIPC   GL112951  14.967   2.971   7.057  0.0551 -0.0473 -0.0211
    1DIPC   GL212952  14.919   2.645   7.027 -0.3852  0.0806 -0.3609
    1DIPC   C1A12953  14.804   3.183   6.697 -0.2044 -0.2251 -0.1852
    1DIPC   D2A12954  15.021   3.434   6.388 -0.2144 -0.1879  0.0749
    1DIPC   D3A12955  15.374   3.390   6.674 -0.2311 -0.1533  0.0204
    1DIPC   C4A12956  15.636   3.755   6.750  0.1777 -0.0272 -0.1824
    1DIPC   C1B12957  14.765   2.690   6.656 -0.1885 -0.4350 -0.1312
    1DIPC   D2B12958  14.551   2.896   6.371  0.0869 -0.0980  0.0218
    1DIPC   D3B12959  14.935   2.987   6.253 -0.0059  0.3427  0.1696
    1DIPC   C4B12960  15.082   2.675   6.211 -0.1552  0.1764  0.2315
    1DIPC   NC312961  23.986   3.129   6.753  0.0318 -0.1232 -0.1858
    1DIPC   PO412962  23.759   2.827   6.935  0.0030  0.0231  0.1733
    1DIPC   GL112963  23.584   2.886   6.537  0.1979  0.1345  0.2049
    1DIPC   GL212964  23.843   2.749   6.431 -0.4326  0.0340  0.1264
    1DIPC   C1A12965  23.394   3.011   6.245  0.2330  0.1800  0.1292
    1DIPC   D2A12966  23.228   3.216   5.830  0.0533  0.0138 -0.1309
    1DIPC   D3A12967  23.466   3.128   5.467 -0.1226  0.0288  0.0243
    1DIPC   C4A12968  23.588   2.762   5.243 -0.2554  0.0158 -0.2680
    1DIPC   C1B12969  23.517   2.497   6.259  0.2008 -0.0850 -0.0095
    1DIPC   D2B12970  23.255   2.610   6.002  0.0087 -0.0055  0.3740
    1DIPC   D3B12971  23.150   2.274   5.773  0.0326 -0.0439  0.0275
    1DIPC   C4B12972  23.303   2.357   5.262 -0.0317  0.0793 -0.1636
    1DIPC   NC312973  13.210   2.815   7.464 -0.1345  0.1434 -0.0221
    1DIPC   PO412974  13.291   3.072   7.105 -0.0475 -0.1896  0.3284
    1DIPC   GL112975  13.278   3.301   6.599 -0.2850  0.0967 -0.0129
    1DIPC   GL212976  12.960   3.224   6.519 -0.1982  0.1546 -0.0016
    1DIPC   C1A12977  13.496   3.302   6.165  0.0017  0.0603 -0.0311
    1DIPC   D2A12978  13.849   3.202   5.937  0.1200 -0.0422 -0.2869
    1DIPC   D3A12979  13.679   3.190   5.468  0.1953 -0.1383 -0.1482
    1DIPC   C4A12980  13.448   3.337   5.099 -0.0282  0.0789 -0.1373
    1DIPC   C1B12981  13.090   3.013   6.168 -0.1245 -0.3638  0.0529
    1DIPC   D2B12982  13.457   2.894   5.913  0.0276  0.1259 -0.1286
    1DIPC   D3B12983  13.671   2.742   6.210 -0.1829 -0.2884 -0.3581
    1DIPC   C4B12984  13.872   2.373   6.177  0.0533  0.2022  0.0514
    1DIPC   NC312985  24.743  14.778   5.290  0.3689  0.2615 -0.1242
    1DIPC   PO412986  24.317  14.861   5.518 -0.1267 -0.0112  0.1139
    1DIPC   GL112987  24.139  15.043   5.142 -0.1617  0.0020 -0.0437
    1DIPC   GL212988  24.424  14.876   4.897  0.1479 -0.0566 -0.1579
    1DIPC   C1A12989  23.940  15.199   4.810  0.1012  0.2835  0.0073
    1DIPC   D2A12990  23.825  15.104   4.340  0.1497  0.3747 -0.2095
    1DIPC   D3A12991  24.127  15.421   4.362 -0.0233 -0.0331 -0.5159
    1DIPC   C4A12992  24.459  15.358   4.599  0.0067 -0.2489  0.2430
    1DIPC   C1B12993  24.303  14.961   4.450  0.1964  0.3386 -0.2398
    1DIPC   D2B12994  24.210  14.931   3.991 -0.0486 -0.1619 -0.1549
    1DIPC   D3B12995  24.487  15.237   4.033  0.0213 -0.1392  0.1051
    1DIPC   C4B12996  24.484  15.715   3.968 -0.2729  0.1991 -0.3297
    1DIPC   NC312997   0.924   0.996   7.124 -0.2491  0.0218 -0.0663
    1DIPC   PO412998   0.770   0.733   6.905 -0.2702 -0.0395 -0.1361
    1DIPC   GL112999   0.733   0.757   6.412  0.0739  0.0929  0.1272
    1DIPC   GL213000   0.901   0.547   6.275  0.0717  0.0975  0.1670
    1DIPC   C1A13001   0.743   0.906   6.043 -0.0221  0.1476  0.0941
    1DIPC   D2A13002   0.732   1.046   5.639  0.0560  0.2301  0.2066
    1DIPC   D3A13003   0.665   0.668   5.295  0.0775  0.0897 -0.1549
    1DIPC   C4A13004   0.310   0.637   4.889 -0.0340 -0.2438 -0.1376
    1DIPC   C1B13005   1.104   0.548   5.874 -0.3011 -0.1004 -0.2339
    1DIPC   D2B13006   1.174   0.782   5.425  0.3252 -0.0967 -0.0039
    1DIPC   D3B13007   1.229   0.354   5.417  0.2994 -0.0691  0.2951
    1DIPC   C4B13008   0.973   0.102   5.211  0.1883  0.2061 -0.2028
    1DIPC   NC313009  29.209  23.137   6.146  0.3794 -0.1548  0.2307
    1DIPC   PO413010  29.595  23.161   5.807 -0.5312  0.2519 -0.0521
    1DIPC   GL113011  29.552  23.336   5.465  0.0690 -0.2228 -0.1287
    1DIPC   GL213012  29.804  23.424   5.364 -0.1520 -0.1371  0.3172
    1DIPC   C1A13013  29.467  23.290   5.014  0.1257  0.2809 -0.1465
    1DIPC   D2A13014  29.427  23.553   4.674  0.1056 -0.0043 -0.0022
    1DIPC   D3A13015  28.947  23.485   4.463 -0.1181 -0.3548  0.2857
    1DIPC   C4A13016  28.664  23.167   4.394  0.0020  0.0335 -0.1367
    1DIPC   C1B13017  29.889  23.544   4.888 -0.0657 -0.1333 -0.1780
    1DIPC   D2B13018  30.284  23.471   4.639  0.1068  0.0901  0.0819
    1DIPC   D3B13019  30.139  23.883   4.416 -0.1796 -0.4183 -0.4076
    1DIPC   C4B13020  30.305  24.198   4.314  0.0282 -0.2573  0.0300
    1DIPC   NC313021  18.102  20.901   6.604  0.1447 -0.0887 -0.0172
    1DIPC   PO413022  18.496  20.686   6.483  0.0319  0.1753 -0.0230
    1DIPC   GL113023  18.457  20.687   6.134 -0.1812 -0.2351  0.2948
    1DIPC   GL213024  18.293  20.981   6.089  0.1716 -0.0767 -0.0993
    1DIPC   C1A13025  18.223  20.497   5.881 -0.1163  0.0851 -0.1757
    1DIPC   D2A13026  17.760  20.413   5.682 -0.2337 -0.0236 -0.0811
    1DIPC   D3A13027  17.759  20.165   5.411 -0.1139 -0.0286 -0.2215
    1DIPC   C4A13028  17.533  20.208   5.032 -0.2845  0.1488 -0.0769
    1DIPC   C1B13029  17.952  20.873   5.659  0.3183  0.1516 -0.1611
    1DIPC   D2B13030  18.103  20.974   5.315 -0.1274  0.1766 -0.1432
    1DIPC   D3B13031  17.776  20.696   5.191 -0.1620  0.0996  0.2232
    1DIPC   C4B13032  17.968  20.499   4.819 -0.3650 -0.1632  0.0061
    1DIPC   NC313033   2.505  20.404   5.105 -0.0748  0.0689  0.0719
    1DIPC   PO413034   2.708  20.077   5.010 -0.1270 -0.1460  0.1739
    1DIPC   GL113035   2.573  19.789   4.608  0.0797  0.1231  0.0218
    1DIPC   GL213036   2.417  20.019   4.490  0.1192 -0.1045 -0.2573
    1DIPC   C1A13037   2.486  19.472   4.366 -0.3393  0.1771  0.0788
    1DIPC   D2A13038   2.339  19.409   4.037 -0.2317 -0.2223  0.0222
    1DIPC   D3A13039   2.564  19.107   3.821 -0.1778 -0.1462 -0.0433
    1DIPC   C4A13040   2.732  19.097   3.431 -0.3045 -0.0468  0.0236
    1DIPC   C1B13041   2.120  19.880   4.204  0.3243  0.1455  0.0017
    1DIPC   D2B13042   2.017  19.717   3.824 -0.2274 -0.2716 -0.1694
    1DIPC   D3B13043   2.216  20.030   3.364  0.2694  0.1027  0.0612
    1DIPC   C4B13044   1.919  20.374   3.258 -0.0084  0.1363 -0.2168
    1DIPC   NC313045  10.936  13.056   7.376  0.0480  0.0166  0.1139
    1DIPC   PO413046  11.379  12.932   7.204  0.0146  0.1849 -0.3505
    1DIPC   GL113047  11.251  12.561   6.966  0.0929 -0.2973 -0.1418
    1DIPC   GL213048  11.399  12.227   7.049  0.0423  0.0553  0.1936
    1DIPC   C1A13049  11.115  12.537   6.562  0.2326 -0.0973 -0.0031
    1DIPC   D2A13050  11.069  12.550   6.126 -0.0578 -0.1222 -0.0662
    1DIPC   D3A13051  11.367  12.485   5.784  0.2352  0.0276 -0.0274
    1DIPC   C4A13052  11.663  12.711   5.704 -0.1338  0.0061  0.1877
    1DIPC   C1B13053  11.107  12.044   6.748 -0.1104 -0.0466  0.0941
    1DIPC   D2B13054  10.902  12.120   6.335 -0.0807  0.0381 -0.0405
    1DIPC   D3B13055  10.512  11.935   6.584 -0.0737 -0.0168  0.1954
    1DIPC   C4B13056  10.363  11.637   6.478  0.0349 -0.0041 -0.2738
    1DIPC   NC313057   8.716   3.682   6.740 -0.2518 -0.1113 -0.0657
    1DIPC   PO413058   8.873   3.970   6.444 -0.1958  0.1166 -0.1975
    1DIPC   GL113059   9.212   3.914   6.176  0.2388  0.0003 -0.3361
    1DIPC   GL213060   9.564   3.798   6.309  0.0866 -0.0239 -0.1339
    1DIPC   C1A13061   9.400   3.691   5.852 -0.0018 -0.2549 -0.1957
    1DIPC   D2A13062   9.555   3.480   5.394 -0.1814 -0.2174  0.1544
    1DIPC   D3A13063   9.189   3.727   5.201  0.0958  0.0612  0.0875
    1DIPC   C4A13064   9.322   4.000   4.793 -0.0375  0.0470  0.1869
    1DIPC   C1B13065   9.850   3.906   5.889 -0.0227 -0.1095 -0.2502
    1DIPC   D2B13066   9.980   3.773   5.479 -0.0461  0.0449 -0.4142
    1DIPC   D3B13067  10.151   4.216   5.478 -0.3324  0.0499  0.2515
    1DIPC   C4B13068  10.388   4.452   5.207  0.1805  0.0444 -0.0417
    1DIPC   NC313069   4.158  16.415   5.916  0.3875  0.0222 -0.0498
    1DIPC   PO413070   4.493  16.785   6.031  0.1890  0.0334 -0.3534
    1DIPC   GL113071   4.746  16.543   5.795 -0.0541  0.0026 -0.1647
    1DIPC   GL213072   4.809  16.838   5.608 -0.0750 -0.0542 -0.5579
    1DIPC   C1A13073   4.800  16.379   5.372 -0.2494 -0.2176 -0.0238
    1DIPC   D2A13074   4.473  16.223   5.101  0.0851  0.2303  0.0473
    1DIPC   D3A13075   4.679  15.956   4.901  0.1383  0.0203  0.1087
    1DIPC   C4A13076   4.699  16.055   4.422 -0.0308 -0.1439  0.0304
    1DIPC   C1B13077   4.845  16.858   5.273  0.0008  0.4677 -0.0976
    1DIPC   D2B13078   5.016  16.707   4.850  0.0296  0.0640  0.2543
    1DIPC   D3B13079   4.681  16.554   4.689 -0.1965  0.0605 -0.0604
    1DIPC   C4B13080   4.554  16.459   4.211  0.0116  0.1054 -0.0886
    1DIPC   NC313081   4.323  20.705   5.281  0.0577 -0.0786  0.0855
    1DIPC   PO413082   3.837  20.809   5.138 -0.3763  0.0887  0.2158
    1DIPC   GL113083   3.782  20.824   4.578 -0.1278  0.2624 -0.1244
    1DIPC   GL213084   3.485  20.866   4.486  0.0273 -0.2817  0.0227
    1DIPC   C1A13085   3.758  20.871   4.081  0.0593  0.0467  0.2364
    1DIPC   D2A13086   3.377  20.780   3.872 -0.0625  0.1677 -0.1267
    1DIPC   D3A13087   3.343  20.666   3.397  0.0497  0.1198 -0.0815
    1DIPC   C4A13088   3.754  20.645   3.075  0.3052  0.1353  0.0153
    1DIPC   C1B13089   3.373  21.204   4.120 -0.0758  0.0339 -0.1077
    1DIPC   D2B13090   3.573  21.236   3.723  0.2353  0.3290  0.1784
    1DIPC   D3B13091   3.224  21.580   3.628 -0.0936 -0.0003 -0.3052
    1DIPC   C4B13092   3.145  21.881   3.897 -0.0215 -0.1456 -0.2227
    1DIPC   NC313093   5.158  12.460   6.830  0.1302 -0.1127 -0.3688
    1DIPC   PO413094   5.329  12.060   6.742 -0.1048 -0.1014  0.0249
    1DIPC   GL113095   5.382  12.154   6.249 -0.1040  0.0006 -0.0727
    1DIPC   GL213096   5.679  12.163   6.004  0.2851  0.0072  0.2383
    1DIPC   C1A13097   5.254  11.828   5.888 -0.2926 -0.1094  0.2115
    1DIPC   D2A13098   5.127  11.495   5.592 -0.0022  0.0404  0.1169
    1DIPC   D3A13099   5.368  11.286   5.346  0.1127 -0.0380  0.1250
    1DIPC   C4A13100   5.184  11.318   4.837  0.0093  0.0621 -0.1511
    1DIPC   C1B13101   5.531  12.364   5.603  0.3602 -0.1026 -0.1800
    1DIPC   D2B13102   5.183  12.109   5.295  0.0320 -0.1173  0.2214
    1DIPC   D3B13103   5.160  12.175   4.851 -0.2698  0.0830 -0.4967
    1DIPC   C4B13104   5.115  11.795   4.662  0.2671  0.1753 -0.4954
    1DIPC   NC313105   5.907  16.015   6.289 -0.3694  0.2593 -0.0582
    1DIPC   PO413106   5.558  15.758   6.510 -0.0135  0.0761 -0.1004
    1DIPC   GL113107   5.482  15.496   6.207  0.0562  0.1381 -0.0861
    1DIPC   GL213108   5.750  15.549   5.997  0.2326  0.3422 -0.0902
    1DIPC   C1A13109   5.369  15.221   5.872 -0.0972  0.2291 -0.0059
    1DIPC   D2A13110   5.302  14.994   5.580  0.0922 -0.1946 -0.0746
    1DIPC   D3A13111   4.879  15.079   5.304  0.0489 -0.1090 -0.1301
    1DIPC   C4A13112   4.675  15.176   4.818 -0.0209 -0.0894  0.3704
    1DIPC   C1B13113   5.994  15.340   5.597  0.0800 -0.0812 -0.0647
    1DIPC   D2B13114   6.170  15.253   5.209  0.1531  0.1634  0.1064
    1DIPC   D3B13115   6.366  15.444   4.805  0.2340 -0.1346 -0.1878
    1DIPC   C4B13116   6.796  15.669   4.789  0.2700  0.1707 -0.0593
    1DIPC   NC313117   3.767   2.438   7.500 -0.0062  0.3523  0.1065
    1DIPC   PO413118   3.927   2.021   7.258  0.2681 -0.1608  0.1379
    1DIPC   GL113119   3.805   2.189   6.716 -0.0512 -0.1060 -0.1763
    1DIPC   GL213120   3.934   1.886   6.546  0.2746 -0.3292  0.1313
    1DIPC   C1A13121   3.933   2.360   6.334  0.0418  0.2195  0.0604
    1DIPC   D2A13122   4.165   2.581   6.014 -0.1462  0.0020 -0.2238
    1DIPC   D3A13123   4.292   2.929   6.235 -0.0654  0.1683  0.0140
    1DIPC   C4A13124   4.508   3.188   5.993  0.2902 -0.1289  0.4257
    1DIPC   C1B13125   3.792   1.870   6.057 -0.1568  0.0955 -0.0916
    1DIPC   D2B13126   4.089   2.073   5.791  0.4282 -0.0832 -0.3763
    1DIPC   D3B13127   4.069   2.014   5.317  0.0293  0.0358 -0.2988
    1DIPC   C4B13128   3.761   1.777   5.109 -0.1669  0.2057  0.1670
    1DIPC   NC313129   1.511  16.963   5.386  0.0277 -0.0221 -0.3175
    1DIPC   PO413130   1.204  16.653   5.366 -0.2253  0.1677  0.1653
    1DIPC   GL113131   1.403  16.634   5.030 -0.1504  0.4516 -0.0585
    1DIPC   GL213132   1.180  16.741   4.771 -0.3093  0.1008 -0.1080
    1DIPC   C1A13133   1.611  16.565   4.664 -0.0752  0.2196 -0.1126
    1DIPC   D2A13134   1.589  16.394   4.309 -0.0322  0.2605 -0.0812
    1DIPC   D3A13135   1.889  16.383   4.115 -0.0048  0.0866 -0.2558
    1DIPC   C4A13136   1.879  16.376   3.654  0.0103 -0.2151 -0.0939
    1DIPC   C1B13137   1.141  16.845   4.396 -0.1899  0.2723 -0.0778
    1DIPC   D2B13138   1.134  17.175   4.065  0.0724  0.0771 -0.1944
    1DIPC   D3B13139   1.191  16.840   3.801 -0.2025  0.0699  0.0973
    1DIPC   C4B13140   0.841  16.937   3.499  0.0779 -0.3759  0.0242
    1DIPC   NC313141  14.265  28.457   6.760 -0.0412  0.0997 -0.0988
    1DIPC   PO413142  14.185  27.945   6.734  0.3608  0.1316  0.0343
    1DIPC   GL113143  13.964  28.182   6.399  0.0175 -0.1424 -0.1767
    1DIPC   GL213144  13.710  28.119   6.359  0.0508 -0.0955  0.0969
    1DIPC   C1A13145  13.961  28.224   5.943  0.1450 -0.0032 -0.0265
    1DIPC   D2A13146  13.995  28.273   5.528 -0.1005  0.4396  0.0555
    1DIPC   D3A13147  14.229  28.649   5.331 -0.4409 -0.1391 -0.2001
    1DIPC   C4A13148  14.207  28.937   5.001 -0.2202 -0.0403 -0.1254
    1DIPC   C1B13149  13.323  28.146   6.372 -0.2454  0.1638 -0.2349
    1DIPC   D2B13150  12.952  28.388   6.434 -0.1699 -0.1863  0.0324
    1DIPC   D3B13151  12.690  28.173   6.170 -0.0068 -0.2388  0.4290
    1DIPC   C4B13152  12.302  27.976   6.342  0.0492  0.3045  0.0624
    1DIPC   NC313153  13.688   0.841   7.673 -0.3034 -0.3061 -0.0128
    1DIPC   PO413154  13.462   0.431   7.658  0.1706 -0.1728 -0.1243
    1DIPC   GL113155  13.596   0.640   7.259 -0.3488 -0.1529 -0.0575
    1DIPC   GL213156  13.557   0.990   7.197 -0.1469  0.0178 -0.0307
    1DIPC   C1A13157  13.766   0.681   6.872 -0.1352  0.2339 -0.0101
    1DIPC   D2A13158  13.966   0.515   6.555 -0.1198 -0.1243  0.2284
    1DIPC   D3A13159  13.550   0.722   6.350  0.0633  0.0080 -0.1089
    1DIPC   C4A13160  13.392   0.602   5.923  0.0053 -0.0755 -0.0218
    1DIPC   C1B13161  13.547   1.097   6.764 -0.1171 -0.0778 -0.1602
    1DIPC   D2B13162  13.803   1.150   6.342 -0.0861  0.0205 -0.0463
    1DIPC   D3B13163  13.504   1.307   6.029  0.3230 -0.1214  0.2768
    1DIPC   C4B13164  13.759   1.506   5.711 -0.1906  0.1256  0.0835
    1DIPC   NC313165   1.284  27.350   6.781 -0.1613 -0.0405  0.2818
    1DIPC   PO413166   1.734  27.456   7.059  0.0665  0.0523  0.0010
    1DIPC   GL113167   1.699  27.475   6.566 -0.0931 -0.2466 -0.1267
    1DIPC   GL213168   1.666  27.114   6.437 -0.0696  0.0774 -0.1522
    1DIPC   C1A13169   1.553  27.723   6.210 -0.3635 -0.0571 -0.2198
    1DIPC   D2A13170   1.585  27.968   5.844  0.2482  0.0762  0.0175
    1DIPC   D3A13171   1.513  28.378   5.831 -0.0850  0.1761  0.0447
    1DIPC   C4A13172   1.734  28.599   5.447  0.0568 -0.1553  0.0322
    1DIPC   C1B13173   1.539  27.284   5.999  0.0997 -0.1219 -0.1945
    1DIPC   D2B13174   1.723  27.216   5.651  0.1401 -0.1990 -0.0014
    1DIPC   D3B13175   1.485  27.333   5.429 -0.3037 -0.0208  0.2366
    1DIPC   C4B13176   1.736  27.623   5.290  0.1295 -0.5236 -0.3518
    1DIPC   NC313177  13.632   5.213   7.195 -0.1410  0.0560  0.1874
    1DIPC   PO413178  13.253   5.014   7.370 -0.2771 -0.1501  0.0548
    1DIPC   GL113179  13.153   5.383   7.091 -0.0655 -0.1482  0.3702
    1DIPC   GL213180  12.836   5.230   7.094 -0.0677  0.3493  0.0329
    1DIPC   C1A13181  13.118   5.449   6.689  0.0508  0.0787 -0.0805
    1DIPC   D2A13182  13.044   5.311   6.269 -0.0831  0.1537 -0.1051
    1DIPC   D3A13183  12.962   5.804   6.138 -0.0539 -0.0127 -0.1525
    1DIPC   C4A13184  12.703   5.905   5.831  0.0041  0.0157  0.2474
    1DIPC   C1B13185  12.744   5.119   6.642 -0.1480 -0.0037  0.2895
    1DIPC   D2B13186  12.384   4.996   6.526  0.3303  0.0224  0.1135
    1DIPC   D3B13187  12.498   4.876   6.107  0.2355  0.1416  0.2118
    1DIPC   C4B13188  12.725   4.446   6.053  0.0834 -0.0698  0.3069
    1DIPC   NC313189  23.916   7.889   6.669  0.1269 -0.1471 -0.0670
    1DIPC   PO413190  23.445   7.795   6.625  0.1066 -0.1683 -0.2476
    1DIPC   GL113191  23.498   7.837   6.244 -0.2973  0.0693  0.0240
    1DIPC   GL213192  23.613   8.126   6.035 -0.1368 -0.2320  0.1929
    1DIPC   C1A13193  23.496   7.676   5.841  0.0028 -0.0334  0.0679
    1DIPC   D2A13194  23.682   7.569   5.374 -0.1064 -0.1127  0.1181
    1DIPC   D3A13195  23.520   7.426   5.011 -0.2103  0.3030 -0.2393
    1DIPC   C4A13196  23.373   7.747   4.782  0.2391 -0.1587 -0.0382
    1DIPC   C1B13197  23.697   8.592   5.922 -0.3559 -0.2522  0.1707
    1DIPC   D2B13198  23.825   8.997   5.672  0.3846 -0.0776 -0.0505
    1DIPC   D3B13199  23.388   9.091   5.588 -0.0075 -0.5314 -0.1603
    1DIPC   C4B13200  23.362   9.184   5.115  0.0652 -0.1438  0.1991
    1DIPC   NC313201  25.387  13.162   5.514  0.0951 -0.2344 -0.0127
    1DIPC   PO413202  25.496  13.607   5.671 -0.0843 -0.0227 -0.1032
    1DIPC   GL113203  25.428  13.727   5.180 -0.0953  0.1237 -0.0264
    1DIPC   GL213204  25.263  13.456   4.996  0.2824 -0.0049 -0.2065
    1DIPC   C1A13205  25.689  13.861   4.930  0.0892 -0.0187  0.1294
    1DIPC   D2A13206  26.088  13.693   4.762  0.0448 -0.2333 -0.1285
    1DIPC   D3A13207  26.260  13.758   4.389 -0.1723 -0.0810 -0.1176
    1DIPC   C4A13208  26.030  13.578   4.053 -0.0950  0.1235 -0.0900
    1DIPC   C1B13209  25.445  13.506   4.560  0.4418  0.0479 -0.1368
    1DIPC   D2B13210  25.335  13.211   4.327  0.2021 -0.2827  0.0408
    1DIPC   D3B13211  25.496  13.461   4.058  0.0350  0.1179 -0.1561
    1DIPC   C4B13212  25.388  13.753   3.840  0.1128  0.0101 -0.0504
    1DIPC   NC313213   3.115   9.650   6.309  0.1934 -0.1346  0.1272
    1DIPC   PO413214   2.773   9.440   6.145  0.3641 -0.0839 -0.0189
    1DIPC   GL113215   3.011   9.501   5.800  0.1575 -0.2342  0.2531
    1DIPC   GL213216   3.228   9.302   5.878  0.0928 -0.0758 -0.3738
    1DIPC   C1A13217   3.178   9.774   5.519 -0.2514 -0.3920  0.1414
    1DIPC   D2A13218   3.045  10.200   5.198  0.3494 -0.0016  0.1360
    1DIPC   D3A13219   2.960  10.007   4.801  0.0910 -0.1521  0.0116
    1DIPC   C4A13220   3.028  10.300   4.564 -0.1231  0.1436  0.0528
    1DIPC   C1B13221   3.319   9.255   5.410  0.0191 -0.0398 -0.2676
    1DIPC   D2B13222   3.357   9.548   5.062 -0.0838 -0.2177  0.0582
    1DIPC   D3B13223   3.740   9.372   5.090  0.1212 -0.0040  0.2401
    1DIPC   C4B13224   3.766   9.045   5.225 -0.1064 -0.1776 -0.2345
    1DIPC   NC313225  16.007   0.004   7.004 -0.0296  0.0011  0.2584
    1DIPC   PO413226  15.674  -0.198   6.766 -0.2481  0.2715 -0.0095
    1DIPC   GL113227  15.790  -0.262   6.429  0.0949 -0.0990 -0.2739
    1DIPC   GL213228  15.525  -0.254   6.256  0.2482  0.1265 -0.0524
    1DIPC   C1A13229  16.206  -0.225   6.088  0.0211 -0.1340 -0.1350
    1DIPC   D2A13230  16.628  -0.163   5.912 -0.2825  0.0474  0.0432
    1DIPC   D3A13231  16.647  -0.160   5.453 -0.2468  0.5034 -0.0866
    1DIPC   C4A13232  16.394  -0.502   5.206 -0.1739  0.0110 -0.0673
    1DIPC   C1B13233  15.749  -0.447   5.897  0.2251 -0.1219  0.2590
    1DIPC   D2B13234  16.010  -0.345   5.575  0.0210  0.2753  0.0312
    1DIPC   D3B13235  16.056  -0.061   5.282 -0.0062 -0.0971  0.2332
    1DIPC   C4B13236  16.081  -0.160   4.774 -0.2640 -0.0875  0.0039
    1DIPC   NC313237   0.252   6.663   6.509 -0.0352  0.2961 -0.2254
    1DIPC   PO413238   0.329   6.235   6.337  0.1196  0.3095 -0.0776
    1DIPC   GL113239   0.324   6.424   5.888  0.2342  0.1427  0.0729
    1DIPC   GL213240   0.034   6.205   5.742  0.3125  0.1025  0.0113
    1DIPC   C1A13241   0.490   6.416   5.557 -0.2345 -0.1991 -0.0103
    1DIPC   D2A13242   0.396   6.305   5.096 -0.1286 -0.3443 -0.1027
    1DIPC   D3A13243   0.755   6.177   4.826  0.1389 -0.3048 -0.0131
    1DIPC   C4A13244   0.648   6.183   4.455  0.1110  0.0061 -0.0225
    1DIPC   C1B13245   0.031   6.147   5.412 -0.1456 -0.2215 -0.2623
    1DIPC   D2B13246  -0.384   6.056   5.250  0.0200  0.4125  0.1223
    1DIPC   D3B13247  -0.433   5.893   4.789 -0.0256 -0.1015 -0.1067
    1DIPC   C4B13248  -0.827   5.557   4.775 -0.0394  0.1340  0.0237
    1DIPC   NC313249  28.245  21.424   6.431  0.0833  0.1202  0.0398
    1DIPC   PO413250  27.968  21.865   6.475  0.0400  0.1424 -0.1350
    1DIPC   GL113251  27.952  21.780   6.016 -0.0526 -0.2360  0.0896
    1DIPC   GL213252  27.980  21.442   5.902  0.0865  0.2509  0.1009
    1DIPC   C1A13253  27.933  21.953   5.600 -0.0169 -0.0895  0.1020
    1DIPC   D2A13254  27.531  22.157   5.375 -0.2220  0.5050  0.0396
    1DIPC   D3A13255  27.781  21.911   5.062  0.0198  0.2541 -0.4218
    1DIPC   C4A13256  27.841  22.078   4.759  0.1195  0.1164 -0.1295
    1DIPC   C1B13257  28.246  21.593   5.598  0.4198  0.2580 -0.0901
    1DIPC   D2B13258  28.580  21.470   5.454 -0.0880  0.0498 -0.3261
    1DIPC   D3B13259  28.900  21.295   5.192 -0.2120  0.0114  0.0322
    1DIPC   C4B13260  29.063  21.495   4.821  0.0437  0.1043 -0.1106
    1DIPC   NC313261   4.135  10.980   6.790 -0.0443  0.1998 -0.2263
    1DIPC   PO413262   3.902  10.901   6.557  0.2918  0.0107  0.1384
    1DIPC   GL113263   4.047  10.824   6.133 -0.2410 -0.4105  0.1440
    1DIPC   GL213264   4.202  11.059   5.965 -0.1065 -0.4007  0.5010
    1DIPC   C1A13265   4.296  10.545   5.979 -0.1649 -0.2174  0.3243
    1DIPC   D2A13266   4.515  10.385   5.659 -0.0961 -0.0539  0.2164
    1DIPC   D3A13267   4.858  10.606   5.639 -0.0966 -0.0682  0.1978
    1DIPC   C4A13268   5.086  10.504   5.310 -0.1148  0.3346  0.0393
    1DIPC   C1B13269   4.383  10.963   5.506  0.1705 -0.1537  0.0962
    1DIPC   D2B13270   4.512  10.676   5.218  0.1580 -0.2631  0.1551
    1DIPC   D3B13271   4.133  10.775   5.109  0.1812  0.1595 -0.1003
    1DIPC   C4B13272   3.970  10.592   4.737  0.1634 -0.1271  0.0703
    1DIPC   NC313273   8.341   8.382   7.587 -0.1245 -0.0242 -0.0078
    1DIPC   PO413274   8.727   8.274   7.463 -0.0048 -0.1246  0.1022
    1DIPC   GL113275   8.581   8.621   7.217  0.2649 -0.1101 -0.1128
    1DIPC   GL213276   8.900   8.833   7.073  0.2272 -0.2029  0.0243
    1DIPC   C1A13277   8.438   8.643   6.917  0.1292 -0.1128 -0.0088
    1DIPC   D2A13278   8.021   8.742   6.875  0.0710  0.2308  0.3321
    1DIPC   D3A13279   7.830   8.365   6.815  0.0336 -0.2771  0.0765
    1DIPC   C4A13280   7.887   8.073   6.620  0.0717  0.1563 -0.1031
    1DIPC   C1B13281   8.750   8.887   6.680  0.1973 -0.0951  0.0040
    1DIPC   D2B13282   8.982   9.248   6.541  0.0212 -0.0754 -0.0773
    1DIPC   D3B13283   8.748   9.378   6.914  0.0775 -0.1541 -0.0185
    1DIPC   C4B13284   8.700   9.271   7.248 -0.0800  0.0653 -0.3195
    1DIPC   NC313285   9.701  28.645   7.402 -0.0688  0.2524  0.1353
    1DIPC   PO413286   9.451  28.710   7.083 -0.1598 -0.0791  0.0756
    1DIPC   GL113287   9.461  28.884   6.722  0.1693  0.1724 -0.0120
    1DIPC   GL213288   9.239  28.727   6.588 -0.2393 -0.0110  0.0457
    1DIPC   C1A13289   9.469  29.193   6.386 -0.2452  0.2648 -0.0882
    1DIPC   D2A13290   9.455  29.425   6.027  0.1569  0.4524  0.2512
    1DIPC   D3A13291   9.829  29.548   5.814  0.0657  0.3481  0.2497
    1DIPC   C4A13292   9.802  29.525   5.317  0.0247  0.2740  0.0628
    1DIPC   C1B13293   9.106  28.646   6.224 -0.2309  0.1809  0.1370
    1DIPC   D2B13294   9.061  28.403   5.891 -0.0761  0.1497 -0.0643
    1DIPC   D3B13295   9.173  28.001   5.971 -0.0561  0.0448  0.0197
    1DIPC   C4B13296   9.602  27.971   6.014 -0.0409 -0.1642 -0.0332
    1DIPC   NC313297  25.196  25.719   6.894  0.0118  0.2878  0.1163
    1DIPC   PO413298  25.141  25.436   6.576 -0.1197 -0.0815  0.1479
    1DIPC   GL113299  25.082  25.445   6.255 -0.0923  0.2398  0.2465
    1DIPC   GL213300  25.096  25.147   6.006  0.0074  0.2057 -0.3293
    1DIPC   C1A13301  24.741  25.510   5.901 -0.0486  0.1527  0.2216
    1DIPC   D2A13302  24.375  25.435   5.687 -0.0587 -0.0893  0.2715
    1DIPC   D3A13303  24.276  25.768   5.691 -0.1396  0.0226  0.0947
    1DIPC   C4A13304  24.031  25.940   5.401 -0.0229 -0.1037  0.2518
    1DIPC   C1B13305  25.116  25.275   5.636 -0.7198  0.0388 -0.0783
    1DIPC   D2B13306  25.327  25.397   5.321  0.2154 -0.0136  0.1150
    1DIPC   D3B13307  25.570  25.368   4.877 -0.0695 -0.0946 -0.2227
    1DIPC   C4B13308  26.018  25.513   4.920  0.0430  0.1474 -0.0177
    1DIPC   NC313309  15.399   5.874   7.363 -0.0539  0.3448  0.2369
    1DIPC   PO413310  15.213   6.229   7.648 -0.2816 -0.0524  0.2472
    1DIPC   GL113311  15.314   6.405   7.288  0.0165  0.0242 -0.0899
    1DIPC   GL213312  15.640   6.322   7.177 -0.2374 -0.0123  0.3064
    1DIPC   C1A13313  15.291   6.780   7.022  0.0167  0.0992  0.3576
    1DIPC   D2A13314  15.016   6.987   7.237  0.1170 -0.0841  0.0212
    1DIPC   D3A13315  14.828   6.638   7.204 -0.0328  0.1106  0.1149
    1DIPC   C4A13316  14.453   6.623   6.978  0.0747 -0.0229 -0.3769
    1DIPC   C1B13317  15.418   6.156   6.831  0.1338  0.2122  0.2095
    1DIPC   D2B13318  15.250   6.291   6.437 -0.1484 -0.1051  0.1316
    1DIPC   D3B13319  14.927   6.133   6.178  0.0701  0.0664 -0.2700
    1DIPC   C4B13320  15.108   6.358   5.865 -0.0121 -0.2244 -0.2207
    1DIPC   NC313321   8.808  20.551   6.864 -0.2184 -0.0887 -0.4663
    1DIPC   PO413322   8.616  20.439   6.547  0.1862 -0.1296  0.2751
    1DIPC   GL113323   8.796  20.367   6.106  0.0830  0.0932 -0.1402
    1DIPC   GL213324   8.681  20.571   5.831  0.0010 -0.1134  0.1535
    1DIPC   C1A13325   9.065  20.189   5.737  0.0136  0.2291 -0.2352
    1DIPC   D2A13326   9.095  20.072   5.272  0.2893 -0.3183  0.2130
    1DIPC   D3A13327   8.665  19.930   5.119  0.0273 -0.3936  0.0105
    1DIPC   C4A13328   8.459  19.574   5.242  0.2193 -0.1862 -0.0963
    1DIPC   C1B13329   8.808  20.989   5.813  0.1541 -0.3332  0.0476
    1DIPC   D2B13330   9.090  21.300   5.695  0.1261 -0.2792  0.1004
    1DIPC   D3B13331   8.623  21.425   5.554 -0.0796 -0.0469 -0.2674
    1DIPC   C4B13332   8.480  21.651   5.259 -0.2284  0.1444  0.2360
    1DIPC   NC313333  14.831  25.268   6.886  0.3462  0.0103 -0.2671
    1DIPC   PO413334  14.963  25.223   6.398  0.1079 -0.0604 -0.0668
    1DIPC   GL113335  15.064  24.879   6.129  0.4340  0.0933  0.3381
    1DIPC   GL213336  15.061  24.842   5.830 -0.1396 -0.2737  0.1072
    1DIPC   C1A13337  14.836  24.483   6.091 -0.1269 -0.2735  0.0933
    1DIPC   D2A13338  14.607  24.260   6.455 -0.3327 -0.4086  0.0182
    1DIPC   D3A13339  14.321  24.608   6.465  0.2015  0.0339 -0.1896
    1DIPC   C4A13340  14.092  24.447   6.140  0.1130 -0.1935  0.1165
    1DIPC   C1B13341  15.332  25.147   5.472  0.1841  0.0618 -0.2945
    1DIPC   D2B13342  15.311  25.245   5.069  0.1651  0.2574  0.1551
    1DIPC   D3B13343  15.048  25.324   4.696  0.0834  0.2475  0.1828
    1DIPC   C4B13344  15.084  25.045   4.335 -0.0091 -0.1056 -0.0888
    1DIPC   NC313345  10.188   2.845   6.917 -0.0172 -0.0549  0.2687
    1DIPC   PO413346   9.935   3.264   6.889 -0.0645  0.0174  0.2275
    1DIPC   GL113347   9.774   3.195   6.517  0.0344  0.0510 -0.0526
    1DIPC   GL213348  10.090   3.057   6.505 -0.1986  0.0455  0.0362
    1DIPC   C1A13349   9.645   3.228   6.171  0.0106 -0.2619 -0.1947
    1DIPC   D2A13350   9.474   3.145   5.905  0.0606  0.0409  0.0287
    1DIPC   D3A13351   9.655   2.980   5.471  0.3442 -0.0771 -0.1868
    1DIPC   C4A13352   9.885   2.616   5.225  0.2054 -0.1852 -0.0296
    1DIPC   C1B13353  10.157   3.179   6.071  0.1759  0.2974  0.0567
    1DIPC   D2B13354   9.894   3.336   5.739  0.1591  0.3160  0.1175
    1DIPC   D3B13355  10.207   3.271   5.321 -0.2489  0.4870 -0.1017
    1DIPC   C4B13356  10.656   3.239   5.306  0.2206  0.3176  0.2280
    1DIPC   NC313357   5.191  27.715   6.897  0.0042 -0.1800  0.1229
    1DIPC   PO413358   5.418  28.130   6.717 -0.0682  0.1560  0.0391
    1DIPC   GL113359   5.718  28.205   6.316 -0.0353 -0.1513 -0.0467
    1DIPC   GL213360   6.087  28.225   6.226  0.0134  0.1639 -0.0297
    1DIPC   C1A13361   5.603  28.216   5.918  0.1419 -0.1596  0.1544
    1DIPC   D2A13362   5.674  28.296   5.492 -0.1857 -0.0578 -0.0776
    1DIPC   D3A13363   5.328  28.509   5.457 -0.3388  0.1381 -0.0248
    1DIPC   C4A13364   5.331  28.821   5.018 -0.0832  0.0196  0.0193
    1DIPC   C1B13365   6.177  28.287   5.765  0.0458  0.0585 -0.2930
    1DIPC   D2B13366   6.083  28.655   5.496  0.1329  0.1881 -0.4146
    1DIPC   D3B13367   5.829  28.722   5.815  0.0820  0.0148 -0.0573
    1DIPC   C4B13368   5.344  28.724   5.916 -0.1325  0.1199  0.0424
    1DIPC   NC313369   1.348   9.261   6.780  0.0375 -0.1275  0.1826
    1DIPC   PO413370   1.350   9.197   6.298  0.4637  0.3459  0.0468
    1DIPC   GL113371   1.470   9.215   5.896 -0.0486 -0.0213 -0.0391
    1DIPC   GL213372   1.781   9.134   5.926 -0.0451 -0.0250 -0.1746
    1DIPC   C1A13373   1.644   9.339   5.526  0.1779  0.4421  0.0053
    1DIPC   D2A13374   1.791   9.534   5.177  0.1557 -0.0122  0.3037
    1DIPC   D3A13375   1.904   9.346   4.758 -0.1489  0.0455 -0.2179
    1DIPC   C4A13376   1.700   9.615   4.493 -0.1371 -0.2838  0.0968
    1DIPC   C1B13377   1.733   8.821   5.539  0.1361 -0.3042 -0.0440
    1DIPC   D2B13378   1.767   8.506   5.231 -0.3514 -0.0607  0.1944
    1DIPC   D3B13379   1.629   8.132   5.101 -0.1568 -0.2176  0.0583
    1DIPC   C4B13380   1.834   7.811   5.163  0.3238  0.3537  0.0844
    1DIPC   NC313381  29.495  14.923   5.376 -0.1146  0.0653  0.1161
    1DIPC   PO413382  29.536  14.489   5.433 -0.1465  0.2296 -0.2530
    1DIPC   GL113383  29.813  14.262   5.081 -0.2645 -0.0424 -0.3072
    1DIPC   GL213384  29.738  13.998   4.964 -0.0846 -0.2348 -0.0767
    1DIPC   C1A13385  30.250  14.326   4.820 -0.0503 -0.1585 -0.2836
    1DIPC   D2A13386  30.429  14.535   4.410  0.2466  0.0592  0.0581
    1DIPC   D3A13387  30.375  14.660   4.040  0.0729 -0.1163 -0.2894
    1DIPC   C4A13388  30.627  14.323   3.779  0.1599 -0.1444  0.1196
    1DIPC   C1B13389  29.893  14.090   4.605  0.1686  0.2989  0.0064
    1DIPC   D2B13390  29.731  14.034   4.236  0.3006 -0.0146 -0.2792
    1DIPC   D3B13391  29.363  13.807   4.142 -0.1506  0.0822 -0.1961
    1DIPC   C4B13392  29.544  13.395   3.962 -0.4112 -0.1985 -0.3241
    1DIPC   NC313393  11.682  26.060   6.618  0.2316  0.2784 -0.0451
    1DIPC   PO413394  11.588  25.636   6.381 -0.1895  0.1473 -0.0557
    1DIPC   GL113395  11.425  25.767   5.990  0.0026 -0.0100 -0.0531
    1DIPC   GL213396  11.070  25.871   5.924  0.1152 -0.1063 -0.3618
    1DIPC   C1A13397  11.405  25.937   5.595 -0.1780 -0.0285 -0.0058
    1DIPC   D2A13398  11.358  26.243   5.307  0.1489  0.0725 -0.3568
    1DIPC   D3A13399  11.151  26.548   5.453 -0.1740 -0.1141  0.2657
    1DIPC   C4A13400  11.225  26.347   5.817  0.1540 -0.1128 -0.2242
    1DIPC   C1B13401  10.804  26.103   5.610  0.1804 -0.2326  0.1880
    1DIPC   D2B13402  10.871  26.157   5.223  0.4528  0.2217  0.3053
    1DIPC   D3B13403  11.057  25.980   4.919 -0.2152 -0.0208  0.3564
    1DIPC   C4B13404  11.394  25.862   4.947 -0.0846  0.0875 -0.0953
    1DIPC   NC313405  29.495  10.317   6.055  0.1005  0.0068 -0.0811
    1DIPC   PO413406  29.119  10.388   5.847 -0.0556 -0.5278  0.0052
    1DIPC   GL113407  29.035  10.392   5.408  0.0235 -0.1018 -0.3777
    1DIPC   GL213408  28.701  10.431   5.197 -0.0394 -0.1142  0.1219
    1DIPC   C1A13409  29.231  10.240   4.990  0.1029 -0.1285 -0.0516
    1DIPC   D2A13410  29.133  10.068   4.644 -0.2272  0.0475 -0.0577
    1DIPC   D3A13411  29.176   9.602   4.827 -0.0631 -0.4553  0.0978
    1DIPC   C4A13412  29.122   9.482   5.186  0.1273 -0.2140 -0.2010
    1DIPC   C1B13413  28.676  10.317   4.810  0.0122 -0.2295  0.0179
    1DIPC   D2B13414  28.972  10.522   4.579  0.0371  0.2879 -0.0399
    1DIPC   D3B13415  28.986  10.568   4.118 -0.4492  0.0347  0.0133
    1DIPC   C4B13416  29.168  10.170   3.885 -0.0764 -0.0125 -0.0149
    1DIPC   NC313417  13.131   9.421   7.513  0.1570 -0.1176  0.0058
    1DIPC   PO413418  12.772   9.259   7.446  0.1292  0.0648  0.2146
    1DIPC   GL113419  12.632   8.998   7.090 -0.2951 -0.1969 -0.2640
    1DIPC   GL213420  12.484   9.215   6.788  0.3489 -0.1925 -0.0728
    1DIPC   C1A13421  12.694   8.789   6.642 -0.1886 -0.0046 -0.3161
    1DIPC   D2A13422  12.886   8.566   6.303  0.0219  0.2655 -0.1594
    1DIPC   D3A13423  12.958   8.309   5.856  0.1828  0.0763  0.0652
    1DIPC   C4A13424  13.036   7.842   5.659  0.1795  0.1302  0.1770
    1DIPC   C1B13425  12.358   9.522   6.458  0.1352  0.1397 -0.0047
    1DIPC   D2B13426  12.626   9.590   6.157 -0.2084 -0.1877  0.0011
    1DIPC   D3B13427  12.659   9.177   6.281  0.1134  0.0291  0.0744
    1DIPC   C4B13428  12.717   8.863   5.959  0.2302  0.0693  0.2318
    1DIPC   NC313429  11.339  23.024   6.169  0.1987 -0.2521 -0.2344
    1DIPC   PO413430  10.899  23.112   5.996  0.2196  0.4377 -0.2307
    1DIPC   GL113431  10.812  22.873   5.645  0.1273 -0.1828  0.4419
    1DIPC   GL213432  10.674  22.628   5.513  0.1148 -0.2681 -0.1720
    1DIPC   C1A13433  10.945  23.103   5.231 -0.2231  0.2296 -0.1489
    1DIPC   D2A13434  11.112  23.349   4.937 -0.0891 -0.0550  0.0793
    1DIPC   D3A13435  11.606  23.476   4.914 -0.1222  0.1828  0.1110
    1DIPC   C4A13436  11.796  23.242   4.600  0.0600 -0.1263  0.2516
    1DIPC   C1B13437  10.518  22.210   5.331 -0.2466  0.3285 -0.2299
    1DIPC   D2B13438  10.450  22.091   4.952  0.0849  0.1397  0.2434
    1DIPC   D3B13439  10.763  22.254   4.753 -0.0091  0.2018  0.1550
    1DIPC   C4B13440  10.868  22.293   4.347 -0.0855 -0.4065  0.1700
    1DIPC   NC313441  21.551  25.595   6.641 -0.0892  0.0248 -0.0936
    1DIPC   PO413442  21.724  25.821   6.318  0.0265 -0.1676 -0.2821
    1DIPC   GL113443  22.073  26.020   6.103 -0.3748  0.2890 -0.3255
    1DIPC   GL213444  22.313  25.753   6.246 -0.0615 -0.3943 -0.2792
    1DIPC   C1A13445  22.342  26.182   5.752 -0.1124  0.2288 -0.4353
    1DIPC   D2A13446  22.375  26.250   5.270 -0.2245  0.0226 -0.0548
    1DIPC   D3A13447  22.507  26.390   4.900 -0.1062  0.1206 -0.1446
    1DIPC   C4A13448  22.252  26.687   5.032 -0.2912  0.2721  0.1130
    1DIPC   C1B13449  22.657  25.789   5.875 -0.0355  0.1494  0.0194
    1DIPC   D2B13450  22.647  25.834   5.485  0.2898  0.0238  0.2557
    1DIPC   D3B13451  23.042  25.676   5.189  0.2873 -0.1773 -0.1249
    1DIPC   C4B13452  23.215  25.277   5.160  0.0401 -0.3981 -0.0055
    1DIPC   NC313453  14.844   3.934   7.825 -0.2503  0.2410 -0.0867
    1DIPC   PO413454  14.949   3.811   7.457  0.1751  0.0216  0.1070
    1DIPC   GL113455  14.851   3.987   7.008  0.3066  0.1454 -0.2029
    1DIPC   GL213456  14.623   4.221   6.917  0.1309  0.0138 -0.1427
    1DIPC   C1A13457  14.713   3.779   6.698  0.4465 -0.1907  0.3462
    1DIPC   D2A13458  14.448   3.571   6.454 -0.1412 -0.0061  0.2082
    1DIPC   D3A13459  14.302   4.032   6.395  0.0631  0.1973  0.1056
    1DIPC   C4A13460  13.908   4.082   6.294 -0.1781 -0.0262  0.0568
    1DIPC   C1B13461  14.658   4.354   6.503  0.1090 -0.0148  0.1051
    1DIPC   D2B13462  14.733   4.765   6.340  0.2618 -0.1319 -0.1481
    1DIPC   D3B13463  15.093   4.880   6.522  0.0238  0.4185 -0.3772
    1DIPC   C4B13464  15.243   5.245   6.627 -0.1320  0.0223 -0.0523
    1DIPC   NC313465  29.683   6.795   6.205 -0.0398 -0.0290 -0.0500
    1DIPC   PO413466  30.037   6.553   6.175 -0.1739 -0.2084 -0.1418
    1DIPC   GL113467  30.024   6.799   5.847  0.2276 -0.1260  0.0919
    1DIPC   GL213468  29.783   6.871   5.721 -0.1084  0.0179  0.0057
    1DIPC   C1A13469  30.073   6.624   5.423 -0.0206 -0.2672  0.2089
    1DIPC   D2A13470  30.037   6.523   4.933  0.1735  0.0318 -0.3231
    1DIPC   D3A13471  30.080   6.771   4.526  0.0374 -0.0279  0.0653
    1DIPC   C4A13472  30.512   6.848   4.276 -0.1908 -0.0795 -0.3484
    1DIPC   C1B13473  29.849   7.082   5.263  0.0608 -0.2152 -0.0093
    1DIPC   D2B13474  30.279   7.033   4.921  0.2484  0.1193  0.2156
    1DIPC   D3B13475  30.184   7.253   4.561  0.0262 -0.2160  0.0836
    1DIPC   C4B13476  30.555   7.339   4.337  0.3379  0.0263 -0.0902
    1DIPC   NC313477  25.800   1.936   6.529  0.2049 -0.2322  0.0825
    1DIPC   PO413478  26.072   1.728   6.347  0.1028 -0.0636 -0.2733
    1DIPC   GL113479  26.028   1.764   5.853 -0.0568  0.1209 -0.1430
    1DIPC   GL213480  26.250   1.972   5.855  0.0665  0.0630 -0.0168
    1DIPC   C1A13481  26.036   1.782   5.361  0.3143 -0.7334  0.1942
    1DIPC   D2A13482  25.871   1.632   5.017  0.1330 -0.1942  0.0193
    1DIPC   D3A13483  25.846   1.473   4.566 -0.0802  0.1972  0.2242
    1DIPC   C4A13484  26.263   1.519   4.416  0.3025  0.2416 -0.3037
    1DIPC   C1B13485  26.506   1.783   5.611  0.1380 -0.0423  0.2172
    1DIPC   D2B13486  26.454   1.758   5.066 -0.0431 -0.1333  0.1946
    1DIPC   D3B13487  26.662   1.621   4.784  0.1819  0.0495 -0.2637
    1DIPC   C4B13488  26.722   1.908   4.506  0.2612  0.0089  0.3452
    1DIPC   NC313489   4.357   5.742   7.018 -0.3103  0.1079  0.0278
    1DIPC   PO413490   4.240   6.085   7.003 -0.0370  0.0249 -0.0972
    1DIPC   GL113491   4.419   6.122   6.569 -0.1496 -0.4164 -0.0817
    1DIPC   GL213492   4.201   5.914   6.515  0.2965 -0.1441  0.0213
    1DIPC   C1A13493   4.504   6.143   6.060  0.2874  0.4089 -0.2251
    1DIPC   D2A13494   4.506   5.990   5.604  0.1541  0.0337 -0.1906
    1DIPC   D3A13495   4.701   5.841   5.296 -0.0309  0.0973  0.0262
    1DIPC   C4A13496   4.617   5.605   5.065  0.1570 -0.1174 -0.2583
    1DIPC   C1B13497   4.092   5.746   6.066 -0.0899  0.0515  0.0634
    1DIPC   D2B13498   3.933   5.673   5.692 -0.1178 -0.2977 -0.0299
    1DIPC   D3B13499   4.006   6.082   5.409  0.0980 -0.0046 -0.3560
    1DIPC   C4B13500   4.242   5.967   5.098 -0.2221 -0.1818  0.0569
    1DIPC   NC313501  28.015   3.536   6.072 -0.0796  0.1021  0.0246
    1DIPC   PO413502  27.768   3.918   5.971  0.0269  0.1070 -0.1293
    1DIPC   GL113503  27.820   4.064   5.503  0.0257  0.2872  0.1619
    1DIPC   GL213504  27.809   4.441   5.530 -0.0899 -0.0251  0.2964
    1DIPC   C1A13505  27.459   3.901   5.166 -0.3517 -0.0937 -0.0837
    1DIPC   D2A13506  27.169   3.661   4.878  0.0645 -0.2356 -0.2830
    1DIPC   D3A13507  27.322   4.040   4.628 -0.2787  0.0577  0.2318
    1DIPC   C4A13508  27.768   4.178   4.869  0.0299 -0.0945 -0.4148
    1DIPC   C1B13509  27.605   4.436   5.242 -0.4030  0.0887  0.0413
    1DIPC   D2B13510  27.294   4.354   4.952  0.0416 -0.0236  0.0628
    1DIPC   D3B13511  27.206   4.770   5.215  0.2977 -0.3038 -0.1128
    1DIPC   C4B13512  26.893   4.959   5.026  0.1359 -0.2075 -0.2781
    1DIPC   NC313513   7.807   9.326   7.668 -0.0038 -0.0602  0.2425
    1DIPC   PO413514   7.447   9.616   7.588  0.0592 -0.1943  0.0115
    1DIPC   GL113515   7.704   9.672   7.224 -0.1301  0.2869  0.0975
    1DIPC   GL213516   8.040   9.645   7.387 -0.0076  0.0103 -0.0827
    1DIPC   C1A13517   7.655   9.699   6.799 -0.2726 -0.3867  0.1276
    1DIPC   D2A13518   7.921   9.692   6.464 -0.3096  0.0444 -0.1512
    1DIPC   D3A13519   8.066   9.605   6.074 -0.2673 -0.0735  0.0438
    1DIPC   C4A13520   8.361   9.245   5.846 -0.4218 -0.0496 -0.3592
    1DIPC   C1B13521   8.121   9.620   6.912 -0.1906 -0.3203  0.0858
    1DIPC   D2B13522   8.440   9.659   6.636 -0.0527  0.1008  0.0686
    1DIPC   D3B13523   8.678   9.668   6.250 -0.1337 -0.1088 -0.0351
    1DIPC   C4B13524   8.486   9.696   5.788  0.1369  0.0528  0.1414
    1DIPC   NC313525  12.361   1.119   8.116  0.1297  0.0497  0.0467
    1DIPC   PO413526  12.656   1.081   7.778  0.0091 -0.0386 -0.3531
    1DIPC   GL113527  12.824   1.139   7.377  0.2030 -0.2133  0.1999
    1DIPC   GL213528  12.771   1.410   7.113  0.0204 -0.0457 -0.1043
    1DIPC   C1A13529  12.996   0.953   7.021  0.0490  0.0221 -0.3234
    1DIPC   D2A13530  13.266   0.683   6.859 -0.1224 -0.0895  0.0800
    1DIPC   D3A13531  13.424   0.274   6.858 -0.0798  0.0970 -0.0683
    1DIPC   C4A13532  13.865   0.123   6.817  0.1145  0.0676  0.2608
    1DIPC   C1B13533  12.508   1.583   6.978 -0.4970 -0.2019  0.3059
    1DIPC   D2B13534  12.146   1.638   7.129 -0.4257 -0.2450  0.2360
    1DIPC   D3B13535  12.061   1.406   6.730 -0.0763 -0.0123 -0.1879
    1DIPC   C4B13536  12.337   1.446   6.410 -0.0414  0.3034 -0.2805
    1DIPC   NC313537   6.692   7.514   7.891 -0.0188 -0.1293 -0.3784
    1DIPC   PO413538   6.987   7.805   7.622  0.1276  0.0633  0.0523
    1DIPC   GL113539   7.078   7.890   7.109  0.0366  0.1918 -0.0951
    1DIPC   GL213540   7.346   8.016   6.949 -0.1393  0.0483 -0.0857
    1DIPC   C1A13541   7.189   7.632   6.663 -0.0047 -0.1902 -0.0345
    1DIPC   D2A13542   6.918   7.438   6.415  0.0869  0.3599  0.1853
    1DIPC   D3A13543   6.505   7.576   6.458 -0.0318  0.2649 -0.0515
    1DIPC   C4A13544   6.233   7.549   6.092 -0.1028  0.1017 -0.0646
    1DIPC   C1B13545   7.305   8.130   6.551 -0.1452 -0.3256 -0.0186
    1DIPC   D2B13546   7.269   7.926   6.189 -0.2227  0.1234  0.1058
    1DIPC   D3B13547   7.298   7.996   5.812 -0.0789 -0.2828 -0.3512
    1DIPC   C4B13548   7.599   7.876   5.520 -0.1161  0.1919  0.2385
    1DIPC   NC313549  29.426   9.497   5.727  0.6241  0.3513 -0.0973
    1DIPC   PO413550  29.381   9.013   5.895  0.0850 -0.1985  0.0024
    1DIPC   GL113551  29.463   8.987   5.501 -0.2680  0.0890 -0.0680
    1DIPC   GL213552  29.756   8.916   5.375  0.2613  0.2082 -0.0736
    1DIPC   C1A13553  29.298   8.963   5.075 -0.0558  0.0882 -0.2931
    1DIPC   D2A13554  29.143   8.828   4.726 -0.0936 -0.4088  0.5336
    1DIPC   D3A13555  28.886   8.574   4.547 -0.5022  0.2782  0.2329
    1DIPC   C4A13556  29.013   8.232   4.490  0.0851  0.2100 -0.1695
    1DIPC   C1B13557  29.674   8.622   5.127 -0.3673  0.1740 -0.1019
    1DIPC   D2B13558  29.936   8.249   4.973  0.0229  0.0772 -0.0996
    1DIPC   D3B13559  29.627   7.855   4.935 -0.0626  0.0309  0.1904
    1DIPC   C4B13560  29.317   7.922   4.698 -0.1557  0.0831 -0.0233
    1DIPC   NC313561   3.905  15.234   6.814 -0.0620  0.1319 -0.0568
    1DIPC   PO413562   4.083  15.027   6.456 -0.2618 -0.1493 -0.1135
    1DIPC   GL113563   4.090  15.023   6.084 -0.0122 -0.0411  0.2466
    1DIPC   GL213564   4.089  15.417   5.975 -0.0305 -0.0784  0.2660
    1DIPC   C1A13565   4.145  15.086   5.629 -0.1353  0.0459 -0.2009
    1DIPC   D2A13566   4.411  15.077   5.241  0.2657 -0.1360  0.0471
    1DIPC   D3A13567   4.213  15.049   4.784  0.0726 -0.2222 -0.1019
    1DIPC   C4A13568   4.455  15.055   4.390 -0.0325  0.1686  0.0406
    1DIPC   C1B13569   4.233  15.654   5.527  0.3855 -0.0865 -0.0508
    1DIPC   D2B13570   4.078  15.797   5.143  0.1524 -0.2797  0.2667
    1DIPC   D3B13571   4.285  15.565   4.755  0.2254  0.1287  0.0225
    1DIPC   C4B13572   3.984  15.538   4.577  0.1787 -0.1754  0.2980
    1DIPC   NC313573   5.014  28.947   7.923 -0.3734  0.6164  0.1487
    1DIPC   PO413574   4.858  28.596   7.802 -0.0341 -0.0612  0.0704
    1DIPC   GL113575   4.917  28.840   7.420 -0.0968  0.0549 -0.0670
    1DIPC   GL213576   4.899  29.202   7.433  0.0071 -0.1318  0.1804
    1DIPC   C1A13577   5.045  28.966   6.976  0.0400  0.1430 -0.0714
    1DIPC   D2A13578   5.000  28.752   6.544  0.1938  0.0293  0.2399
    1DIPC   D3A13579   4.871  28.832   6.047 -0.0428 -0.0565  0.0456
    1DIPC   C4A13580   4.982  29.142   5.887  0.1754  0.6456 -0.2183
    1DIPC   C1B13581   5.121  29.516   7.031  0.0018 -0.1749  0.1053
    1DIPC   D2B13582   5.315  29.577   6.666 -0.1151 -0.2860 -0.0612
    1DIPC   D3B13583   5.486  29.201   6.558 -0.1084 -0.2670  0.1065
    1DIPC   C4B13584   5.374  29.147   6.209  0.1306  0.2419 -0.0330
    1DIPC   NC313585  24.535  10.535   5.620 -0.0114  0.2772  0.2625
    1DIPC   PO413586  24.700  10.188   5.676  0.0416  0.1298 -0.0199
    1DIPC   GL113587  24.800  10.143   5.205 -0.0046 -0.1076  0.0522
    1DIPC   GL213588  25.144  10.165   5.121 -0.0437 -0.0573 -0.0750
    1DIPC   C1A13589  24.692  10.194   4.831  0.2392 -0.0280  0.3223
    1DIPC   D2A13590  24.553  10.656   4.581 -0.1601  0.1952 -0.2245
    1DIPC   D3A13591  25.049  10.553   4.756  0.0896  0.0548  0.2550
    1DIPC   C4A13592  25.311  10.650   5.115  0.1168  0.0618  0.3652
    1DIPC   C1B13593  25.436   9.838   4.863  0.3607 -0.1730  0.0016
    1DIPC   D2B13594  25.553   9.503   4.631 -0.3614 -0.1752  0.0601
    1DIPC   D3B13595  25.262   9.324   4.667  0.0702 -0.2070 -0.0410
    1DIPC   C4B13596  25.141   8.900   4.635 -0.2711 -0.2068 -0.1034
    1DIPC   NC313597   2.808  11.735   6.265 -0.0477  0.1012  0.1885
    1DIPC   PO413598   2.829  11.335   6.238  0.0452 -0.1146 -0.0772
    1DIPC   GL113599   2.685  11.423   5.835  0.0393  0.1683 -0.2688
    1DIPC   GL213600   2.394  11.540   5.712 -0.2785 -0.2915  0.2248
    1DIPC   C1A13601   2.843  11.779   5.595 -0.2487 -0.1767  0.0476
    1DIPC   D2A13602   3.312  11.817   5.370  0.1620  0.0586  0.3365
    1DIPC   D3A13603   3.191  12.179   5.268 -0.0781  0.1269 -0.0988
    1DIPC   C4A13604   3.153  12.552   5.001  0.1798  0.2143 -0.2036
    1DIPC   C1B13605   2.471  11.520   5.319 -0.1415 -0.1868  0.1379
    1DIPC   D2B13606   2.435  11.501   4.828 -0.1499 -0.0151  0.2534
    1DIPC   D3B13607   2.920  11.476   4.944 -0.0197  0.1104 -0.0385
    1DIPC   C4B13608   3.198  11.312   4.656  0.2918  0.2425 -0.3990
    1DIPC   NC313609   4.656  11.690   6.239 -0.2759  0.0826  0.2116
    1DIPC   PO413610   4.181  11.776   6.240  0.1908 -0.1658 -0.1618
    1DIPC   GL113611   3.925  11.660   5.992  0.0809 -0.1827 -0.3216
    1DIPC   GL213612   3.665  11.663   5.772 -0.3873 -0.4398  0.1619
    1DIPC   C1A13613   4.155  11.439   5.606  0.0899 -0.0857 -0.0046
    1DIPC   D2A13614   4.134  11.266   5.179  0.1939 -0.1857 -0.3193
    1DIPC   D3A13615   4.434  11.537   5.034 -0.0167 -0.0616  0.1233
    1DIPC   C4A13616   4.715  11.520   4.655  0.0586 -0.2081 -0.2284
    1DIPC   C1B13617   3.828  11.636   5.330  0.2792 -0.1913  0.2790
    1DIPC   D2B13618   3.753  11.548   4.875 -0.0706 -0.0534  0.2328
    1DIPC   D3B13619   3.602  11.945   4.967 -0.1975 -0.1096 -0.2471
    1DIPC   C4B13620   3.324  11.895   4.781  0.1621  0.1533  0.1592
    1DIPC   NC313621   7.934  19.268   6.959 -0.0470 -0.0550 -0.1080
    1DIPC   PO413622   8.306  19.284   6.695  0.1536 -0.3642 -0.0614
    1DIPC   GL113623   8.428  19.027   6.364 -0.4255 -0.0978 -0.1345
    1DIPC   GL213624   8.784  19.005   6.408 -0.0198  0.2196  0.2333
    1DIPC   C1A13625   8.259  18.996   5.935 -0.2492 -0.0032 -0.1822
    1DIPC   D2A13626   8.123  18.762   5.556  0.1095  0.2882  0.0757
    1DIPC   D3A13627   7.953  19.047   5.223  0.2061  0.1800  0.0700
    1DIPC   C4A13628   8.127  19.319   4.884  0.1658  0.1233  0.0806
    1DIPC   C1B13629   8.874  18.841   5.990 -0.0238 -0.0892  0.0371
    1DIPC   D2B13630   8.618  18.667   5.657  0.1038 -0.2126  0.0074
    1DIPC   D3B13631   8.766  18.220   5.613 -0.0242 -0.0521  0.0882
    1DIPC   C4B13632   8.557  17.831   5.778 -0.0014  0.4480 -0.2040
    1DIPC   NC313633   8.880  10.160   7.761 -0.0009  0.3022  0.2388
    1DIPC   PO413634   9.235  10.041   7.868  0.0563  0.1028  0.2467
    1DIPC   GL113635   9.230   9.868   7.479 -0.1727  0.1671  0.2414
    1DIPC   GL213636   9.374   9.984   7.202 -0.1695 -0.4971  0.3863
    1DIPC   C1A13637   8.942   9.769   7.147  0.1023 -0.2927  0.3344
    1DIPC   D2A13638   8.952   9.888   6.714 -0.0597 -0.1187  0.2410
    1DIPC   D3A13639   8.557  10.099   6.511  0.0779  0.2547  0.1447
    1DIPC   C4A13640   8.254  10.065   6.147 -0.3419  0.1521 -0.0516
    1DIPC   C1B13641   9.395   9.701   6.902 -0.0301  0.0062 -0.1361
    1DIPC   D2B13642   9.393   9.550   6.516  0.0184 -0.2853 -0.0988
    1DIPC   D3B13643   9.712   9.448   6.278  0.1748 -0.0634  0.3428
    1DIPC   C4B13644   9.862   9.171   6.540  0.0118 -0.2770 -0.0273
    1DIPC   NC313645  22.983  19.090   6.373 -0.0215 -0.0749  0.1399
    1DIPC   PO413646  22.683  18.839   6.403 -0.0123  0.0439 -0.0552
    1DIPC   GL113647  22.814  18.749   6.007 -0.1600  0.3120 -0.0505
    1DIPC   GL213648  22.745  19.043   5.881 -0.2630  0.1208  0.2227
    1DIPC   C1A13649  23.061  18.716   5.659  0.5223 -0.0136  0.0197
    1DIPC   D2A13650  23.198  18.984   5.429 -0.0861 -0.3955 -0.3042
    1DIPC   D3A13651  23.229  18.901   5.016  0.0302  0.3385 -0.0720
    1DIPC   C4A13652  22.998  18.583   4.777  0.0386  0.1765 -0.1729
    1DIPC   C1B13653  22.498  19.109   5.603  0.0095 -0.1192 -0.0364
    1DIPC   D2B13654  22.518  19.277   5.199  0.1360 -0.1137 -0.2675
    1DIPC   D3B13655  22.158  19.131   4.966  0.2452  0.0243  0.1445
    1DIPC   C4B13656  21.798  18.947   4.782 -0.2405 -0.4311 -0.1651
    1DIPC   NC313657  26.234  10.584   6.034 -0.2299 -0.0651 -0.1284
    1DIPC   PO413658  26.650  10.610   5.927 -0.2741  0.0288  0.2458
    1DIPC   GL113659  26.722  10.489   5.454 -0.0843  0.2377 -0.1188
    1DIPC   GL213660  26.691  10.145   5.390  0.1237  0.0680  0.2385
    1DIPC   C1A13661  26.654  10.719   5.023  0.0431  0.0597  0.0388
    1DIPC   D2A13662  26.324  10.838   4.661  0.0525  0.1343 -0.1091
    1DIPC   D3A13663  26.453  10.781   4.271  0.0508 -0.4271  0.0145
    1DIPC   C4A13664  26.280  10.982   3.875  0.0846  0.3317 -0.0632
    1DIPC   C1B13665  26.411   9.846   5.142 -0.0888 -0.0048  0.1683
    1DIPC   D2B13666  26.314   9.398   4.970  0.0809 -0.1088 -0.0120
    1DIPC   D3B13667  26.014   9.178   4.708 -0.0442  0.1320  0.1204
    1DIPC   C4B13668  26.187   8.947   4.442  0.2749  0.0027 -0.2225
    1DIPC   NC313669   0.937  19.402   5.193 -0.1213 -0.0362 -0.0725
    1DIPC   PO413670   0.973  19.722   5.361  0.1001  0.1155 -0.3063
    1DIPC   GL113671   1.160  19.863   4.981  0.1095 -0.2436  0.2870
    1DIPC   GL213672   0.950  19.972   4.779  0.1624  0.1716 -0.0607
    1DIPC   C1A13673   1.250  19.628   4.610 -0.0904 -0.2312  0.3714
    1DIPC   D2A13674   1.218  19.544   4.210 -0.1611  0.0161  0.0392
    1DIPC   D3A13675   1.415  19.864   3.906  0.0025  0.1839  0.2067
    1DIPC   C4A13676   1.335  19.880   3.445 -0.3090  0.2214  0.0027
    1DIPC   C1B13677   0.660  19.607   4.586 -0.2014  0.1105  0.3341
    1DIPC   D2B13678   0.660  19.380   4.224  0.2222  0.0790  0.1171
    1DIPC   D3B13679   0.233  19.583   4.135  0.0545  0.1231  0.1392
    1DIPC   C4B13680   0.065  19.760   4.531 -0.1224 -0.0080  0.0239
    1DIPC   NC313681   7.022  21.581   5.524 -0.0363  0.2075  0.0856
    1DIPC   PO413682   7.209  21.257   5.661 -0.0481  0.1028 -0.0508
    1DIPC   GL113683   7.564  21.222   5.375  0.0564  0.0087 -0.1543
    1DIPC   GL213684   7.816  20.966   5.515  0.1982  0.1200  0.4327
    1DIPC   C1A13685   7.737  21.388   4.972  0.0458 -0.3192 -0.0853
    1DIPC   D2A13686   7.984  21.106   4.620  0.0939 -0.1253 -0.2001
    1DIPC   D3A13687   7.957  21.110   4.151  0.1309 -0.1828 -0.0650
    1DIPC   C4A13688   7.983  21.529   3.967  0.2828  0.2502 -0.2111
    1DIPC   C1B13689   7.813  20.712   5.099  0.0168 -0.1236  0.0568
    1DIPC   D2B13690   7.926  20.333   4.863  0.1696 -0.1072 -0.1127
    1DIPC   D3B13691   7.950  20.126   4.423  0.1517 -0.0852 -0.0156
    1DIPC   C4B13692   8.259  20.243   4.275  0.2985  0.0777  0.0216
    1DIPC   NC313693   5.646  22.606   6.165 -0.3592 -0.4571  0.2003
    1DIPC   PO413694   5.960  22.429   5.854 -0.0290 -0.4889  0.3482
    1DIPC   GL113695   5.993  22.490   5.390 -0.1335 -0.1807 -0.1224
    1DIPC   GL213696   6.337  22.412   5.290 -0.0608  0.3122 -0.3206
    1DIPC   C1A13697   5.978  22.431   4.901  0.0491  0.0076  0.3183
    1DIPC   D2A13698   5.656  22.215   4.584  0.4406  0.3531 -0.0913
    1DIPC   D3A13699   5.793  22.289   4.223 -0.2222 -0.0639  0.2401
    1DIPC   C4A13700   5.756  21.946   3.860 -0.1183 -0.0652 -0.0665
    1DIPC   C1B13701   6.479  22.651   4.895 -0.1673 -0.0844 -0.0920
    1DIPC   D2B13702   6.881  22.876   4.762 -0.1414  0.0243  0.0829
    1DIPC   D3B13703   6.802  23.062   4.386  0.2293 -0.3744  0.2472
    1DIPC   C4B13704   6.783  22.878   3.960 -0.0318  0.1835  0.0756
    1DIPC   NC313705  24.368   4.485   7.293 -0.1376  0.0542 -0.0237
    1DIPC   PO413706  24.051   4.510   7.028  0.4014  0.2673 -0.1966
    1DIPC   GL113707  24.051   4.585   6.587  0.0306  0.4316  0.1200
    1DIPC   GL213708  23.734   4.638   6.473  0.3154  0.0160 -0.0135
    1DIPC   C1A13709  24.098   4.440   6.194 -0.2282 -0.0323  0.0982
    1DIPC   D2A13710  24.450   4.550   5.937 -0.2699 -0.0440  0.0314
    1DIPC   D3A13711  24.273   4.472   5.442 -0.1778  0.0403  0.1009
    1DIPC   C4A13712  24.455   4.407   5.033  0.2331 -0.2001 -0.0461
    1DIPC   C1B13713  23.713   4.878   6.069 -0.0129 -0.0992  0.1209
    1DIPC   D2B13714  23.672   5.032   5.618  0.2181  0.1660 -0.3316
    1DIPC   D3B13715  23.797   4.655   5.531 -0.0976 -0.1258 -0.1172
    1DIPC   C4B13716  23.959   4.668   5.121  0.3726  0.0177  0.3892
    1DIPC   NC313717   2.887  19.637   5.053 -0.2126  0.1308 -0.1269
    1DIPC   PO413718   3.313  19.612   4.992  0.1998 -0.3936 -0.0500
    1DIPC   GL113719   3.518  19.533   4.557  0.2254  0.4879  0.1962
    1DIPC   GL213720   3.437  19.725   4.335  0.0315 -0.0289  0.0759
    1DIPC   C1A13721   3.548  19.214   4.195 -0.0940 -0.2203 -0.0636
    1DIPC   D2A13722   3.782  19.186   3.796  0.0551  0.1022  0.0487
    1DIPC   D3A13723   3.306  19.247   3.444  0.0984  0.0044  0.0362
    1DIPC   C4A13724   3.218  18.984   3.169 -0.3813  0.1220 -0.0215
    1DIPC   C1B13725   2.946  19.851   4.201  0.1350 -0.1332  0.0655
    1DIPC   D2B13726   2.595  19.955   3.856  0.0545 -0.0203 -0.0803
    1DIPC   D3B13727   2.806  19.550   3.766 -0.0707 -0.2393  0.0529
    1DIPC   C4B13728   3.220  19.545   3.878 -0.1818 -0.0432  0.0169
    1DIPC   NC313729  12.012   9.694   7.770  0.5166 -0.1226 -0.0493
    1DIPC   PO413730  11.851   9.448   7.464 -0.0170  0.1408 -0.3136
    1DIPC   GL113731  11.873   9.405   7.025 -0.2508  0.0862  0.0012
    1DIPC   GL213732  11.803   9.662   6.875  0.1471  0.2100  0.1486
    1DIPC   C1A13733  11.974   9.274   6.614  0.0756 -0.1413  0.0355
    1DIPC   D2A13734  12.011   9.382   6.178 -0.0504 -0.2657  0.2971
    1DIPC   D3A13735  11.770   9.313   5.837  0.5049 -0.1139 -0.1594
    1DIPC   C4A13736  11.505   9.694   5.694  0.1855 -0.0603  0.2892
    1DIPC   C1B13737  11.696   9.749   6.363 -0.0406  0.0364 -0.2411
    1DIPC   D2B13738  11.876   9.864   6.009 -0.0306  0.0634  0.2049
    1DIPC   D3B13739  12.287   9.710   5.877  0.2578 -0.0042 -0.1876
    1DIPC   C4B13740  12.578  10.089   5.870  0.0376  0.1754  0.1459
    1DIPC   NC313741  20.231   2.802   7.370  0.2862  0.1507  0.3034
    1DIPC   PO413742  20.044   2.934   6.973  0.1397 -0.1811  0.1899
    1DIPC   GL113743  19.985   2.785   6.670  0.0783  0.0947 -0.1834
    1DIPC   GL213744  19.733   2.476   6.790  0.0776 -0.0177 -0.2047
    1DIPC   C1A13745  19.705   2.712   6.338  0.0728  0.1884  0.4816
    1DIPC   D2A13746  19.743   2.435   5.951  0.1024 -0.0431 -0.0067
    1DIPC   D3A13747  19.601   2.608   5.548  0.1232 -0.1588 -0.1971
    1DIPC   C4A13748  19.441   2.323   5.287  0.3298 -0.2617  0.2962
    1DIPC   C1B13749  19.332   2.547   6.597  0.0908 -0.2560  0.0482
    1DIPC   D2B13750  19.147   2.628   6.245  0.0142 -0.1251  0.3072
    1DIPC   D3B13751  19.415   2.776   5.957  0.2209  0.0928 -0.3733
    1DIPC   C4B13752  19.569   3.145   5.923  0.0974  0.1911  0.0300
    1DIPC   NC313753  16.490   5.343   6.973 -0.2622 -0.0702  0.2593
    1DIPC   PO413754  16.087   5.335   7.069  0.0894  0.3841 -0.1106
    1DIPC   GL113755  16.007   5.375   6.621  0.0108 -0.1631  0.2396
    1DIPC   GL213756  16.155   5.141   6.544  0.0269  0.1052  0.3489
    1DIPC   C1A13757  16.085   5.356   6.094  0.0245 -0.1718  0.0694
    1DIPC   D2A13758  16.368   5.377   5.803  0.1920  0.0239 -0.1024
    1DIPC   D3A13759  16.006   5.362   5.556  0.0052 -0.0357  0.0960
    1DIPC   C4A13760  15.810   5.014   5.409 -0.2128  0.0826 -0.3898
    1DIPC   C1B13761  15.820   4.943   6.278 -0.2008 -0.0026  0.1415
    1DIPC   D2B13762  15.584   4.679   6.025  0.3264  0.0238 -0.0599
    1DIPC   D3B13763  15.885   4.599   5.704  0.0092  0.0978 -0.2291
    1DIPC   C4B13764  15.948   4.585   5.226  0.1546 -0.5319 -0.3401
    1DIPC   NC313765  11.484   1.038   7.724 -0.2490  0.0982 -0.2212
    1DIPC   PO413766  11.746   0.785   7.434  0.1784 -0.1455 -0.1681
    1DIPC   GL113767  11.890   0.912   6.967  0.1141  0.1147  0.2568
    1DIPC   GL213768  12.165   0.977   7.008  0.2795  0.1946  0.0439
    1DIPC   C1A13769  12.130   0.932   6.512  0.2901  0.0080  0.2129
    1DIPC   D2A13770  12.189   0.859   6.088  0.1845  0.0366  0.2060
    1DIPC   D3A13771  12.071   1.392   5.923 -0.0326 -0.3247  0.1892
    1DIPC   C4A13772  11.630   1.432   5.828 -0.2401 -0.0392 -0.1911
    1DIPC   C1B13773  12.541   1.128   6.716  0.0998 -0.4613 -0.0527
    1DIPC   D2B13774  12.770   1.096   6.392 -0.1998 -0.0992 -0.5374
    1DIPC   D3B13775  13.235   1.133   6.420  0.1355 -0.0626  0.0832
    1DIPC   C4B13776  13.451   1.478   6.525  0.0510 -0.0812 -0.2732
    1DIPC   NC313777  25.693  15.575   5.270 -0.0192 -0.2402 -0.1212
    1DIPC   PO413778  25.886  15.280   5.197 -0.0103 -0.1939 -0.0353
    1DIPC   GL113779  25.735  15.430   4.808  0.2142  0.0119 -0.0586
    1DIPC   GL213780  25.422  15.395   4.838 -0.1763 -0.0643  0.0205
    1DIPC   C1A13781  25.654  15.366   4.368 -0.1890 -0.0833  0.1103
    1DIPC   D2A13782  25.498  15.430   3.953 -0.0826  0.0806  0.1092
    1DIPC   D3A13783  25.786  15.526   3.629  0.0251 -0.0792  0.2386
    1DIPC   C4A13784  26.143  15.375   3.385  0.1020 -0.2522  0.1573
    1DIPC   C1B13785  25.176  15.369   4.403 -0.1439 -0.2225 -0.2626
    1DIPC   D2B13786  24.799  15.556   4.297  0.2205 -0.0349  0.0881
    1DIPC   D3B13787  24.947  15.552   3.869 -0.0936 -0.0375  0.3374
    1DIPC   C4B13788  25.072  15.119   3.960 -0.0167  0.1367  0.1910
    1DIPC   NC313789  27.677  23.801   6.296  0.2157  0.1321  0.0773
    1DIPC   PO413790  28.014  23.900   6.168 -0.0249  0.0822 -0.1094
    1DIPC   GL113791  27.988  24.039   5.779  0.0768 -0.0668 -0.0021
    1DIPC   GL213792  28.204  23.832   5.556  0.0811  0.2195 -0.2084
    1DIPC   C1A13793  27.996  24.320   5.408 -0.0620  0.0900 -0.2000
    1DIPC   D2A13794  28.358  24.500   5.122 -0.2207 -0.1069  0.3312
    1DIPC   D3A13795  28.809  24.403   4.981 -0.0044 -0.0385  0.1404
    1DIPC   C4A13796  29.094  24.127   5.248 -0.0197 -0.1303  0.2034
    1DIPC   C1B13797  28.055  23.535   5.398  0.2443  0.1326  0.4321
    1DIPC   D2B13798  27.700  23.314   5.073 -0.2141  0.0600 -0.3962
    1DIPC   D3B13799  28.107  23.317   4.946 -0.0962  0.1969 -0.1363
    1DIPC   C4B13800  28.435  23.070   4.883 -0.2720 -0.1654  0.1537
    1DIPC   NC313801  25.390  10.419   5.984  0.0644  0.1656 -0.1228
    1DIPC   PO413802  25.755  10.155   5.798  0.0305  0.2045 -0.0777
    1DIPC   GL113803  25.885  10.035   5.371 -0.0860 -0.1073 -0.2998
    1DIPC   GL213804  25.604   9.982   5.252 -0.0798 -0.1100 -0.3508
    1DIPC   C1A13805  26.093  10.156   4.903  0.1746 -0.0046 -0.0292
    1DIPC   D2A13806  26.518  10.225   4.796 -0.0056 -0.1404 -0.0353
    1DIPC   D3A13807  26.499  10.002   4.485  0.1830  0.0797  0.0132
    1DIPC   C4A13808  26.150   9.720   4.226  0.0061  0.3918 -0.0917
    1DIPC   C1B13809  25.582  10.313   4.845 -0.0371  0.0649  0.1910
    1DIPC   D2B13810  25.806  10.565   4.585  0.0099 -0.0080  0.1347
    1DIPC   D3B13811  26.056  10.272   4.432  0.0827 -0.0988  0.0169
    1DIPC   C4B13812  26.016  10.243   4.017 -0.0346 -0.3058 -0.1459
    1DIPC   NC313813  25.181  27.746   7.345 -0.1005  0.1642  0.0218
    1DIPC   PO413814  25.269  27.563   6.948  0.0482 -0.0962  0.2588
    1DIPC   GL113815  25.138  27.807   6.628 -0.0218  0.0066 -0.3692
    1DIPC   GL213816  24.878  27.776   6.505 -0.2623 -0.0350  0.1925
    1DIPC   C1A13817  24.973  28.269   6.663 -0.0164 -0.1498  0.0118
    1DIPC   D2A13818  24.569  28.414   6.457  0.1547 -0.0865  0.2461
    1DIPC   D3A13819  24.563  28.812   6.136  0.1497 -0.1184 -0.2556
    1DIPC   C4A13820  24.923  29.042   6.234 -0.0951  0.2004 -0.2710
    1DIPC   C1B13821  24.872  28.086   6.209  0.3218 -0.1201  0.2540
    1DIPC   D2B13822  24.881  28.415   5.859  0.1890 -0.3292  0.0105
    1DIPC   D3B13823  24.405  28.298   5.984 -0.1516  0.0317 -0.1215
    1DIPC   C4B13824  24.337  27.913   6.168  0.0408  0.2633  0.1925
    1DIPC   NC313825   1.180  17.904   5.555  0.0935  0.2771 -0.0609
    1DIPC   PO413826   1.569  18.103   5.706 -0.2987  0.0787  0.3556
    1DIPC   GL113827   1.863  18.090   5.326 -0.0777  0.1596  0.3505
    1DIPC   GL213828   1.895  17.803   5.124 -0.1205 -0.0383 -0.1977
    1DIPC   C1A13829   1.934  18.322   4.895  0.2113  0.0218  0.0670
    1DIPC   D2A13830   1.603  18.436   4.557  0.0788 -0.3518  0.1082
    1DIPC   D3A13831   1.695  18.908   4.370  0.1488  0.0667 -0.3221
    1DIPC   C4A13832   1.611  19.231   4.576  0.1143 -0.0417 -0.0539
    1DIPC   C1B13833   1.922  17.802   4.751 -0.0691 -0.2116 -0.2339
    1DIPC   D2B13834   2.063  18.013   4.366  0.1001 -0.2200 -0.0383
    1DIPC   D3B13835   1.835  17.595   4.286 -0.2822  0.1617  0.2920
    1DIPC   C4B13836   1.992  17.296   4.573  0.1478 -0.1149 -0.0475
    1DIPC   NC313837   9.323   0.149   7.222 -0.0339  0.2220  0.3625
    1DIPC   PO413838   9.241  -0.325   7.046 -0.0381  0.2140  0.0670
    1DIPC   GL113839   9.056  -0.104   6.740 -0.0685 -0.4289  0.1769
    1DIPC   GL213840   8.740  -0.229   6.711  0.2057  0.1289  0.0637
    1DIPC   C1A13841   8.827   0.237   6.527  0.0853  0.0934 -0.1652
    1DIPC   D2A13842   8.627   0.461   6.209  0.2229 -0.1287  0.0982
    1DIPC   D3A13843   8.752   0.285   5.716 -0.0595  0.0904 -0.0499
    1DIPC   C4A13844   8.433   0.268   5.371  0.1800  0.1067  0.0094
    1DIPC   C1B13845   8.439  -0.109   6.363  0.2781  0.5549 -0.2492
    1DIPC   D2B13846   8.326  -0.003   5.974 -0.1844 -0.0601  0.0904
    1DIPC   D3B13847   8.145  -0.217   5.577  0.3231 -0.0856 -0.3091
    1DIPC   C4B13848   8.154  -0.103   5.231 -0.2804 -0.0844 -0.1176
    1DIPC   NC313849   2.475   9.916   6.247 -0.0045 -0.1269 -0.1871
    1DIPC   PO413850   2.546  10.340   6.155 -0.0315  0.0114  0.2688
    1DIPC   GL113851   2.747  10.465   5.798  0.0549 -0.2355  0.0591
    1DIPC   GL213852   3.069  10.428   5.619  0.3486  0.2345 -0.0823
    1DIPC   C1A13853   2.642  10.210   5.489 -0.4308 -0.0288 -0.0091
    1DIPC   D2A13854   2.444  10.022   5.126 -0.0465 -0.2587  0.2440
    1DIPC   D3A13855   2.405   9.685   4.821 -0.3864  0.1234  0.3178
    1DIPC   C4A13856   2.768   9.403   4.603  0.1768  0.1051  0.0484
    1DIPC   C1B13857   3.447  10.650   5.479  0.0735  0.0971 -0.0271
    1DIPC   D2B13858   3.938  10.730   5.627  0.3069  0.0287  0.1016
    1DIPC   D3B13859   3.934  10.329   5.478  0.0212  0.1444 -0.1330
    1DIPC   C4B13860   3.535  10.163   5.448  0.0634 -0.0619 -0.0296
    1DIPC   NC313861  18.937  26.814   6.527 -0.1981  0.3933  0.1791
    1DIPC   PO413862  18.725  27.036   6.349 -0.3138 -0.1487 -0.0359
    1DIPC   GL113863  18.810  27.137   5.946  0.0560  0.0760  0.2073
    1DIPC   GL213864  18.620  26.985   5.797  0.1832 -0.0225 -0.0753
    1DIPC   C1A13865  18.979  27.093   5.466  0.3692 -0.0415  0.0427
    1DIPC   D2A13866  18.874  26.857   5.118  0.1087  0.0567 -0.2915
    1DIPC   D3A13867  19.326  26.961   5.084  0.0216  0.1641  0.1249
    1DIPC   C4A13868  19.603  26.584   5.078 -0.0777 -0.0826 -0.0201
    1DIPC   C1B13869  18.497  27.014   5.502 -0.0641 -0.0196  0.3143
    1DIPC   D2B13870  18.545  27.419   5.251 -0.0633  0.0248  0.0823
    1DIPC   D3B13871  18.513  27.600   5.594  0.0355  0.5964  0.0334
    1DIPC   C4B13872  18.357  27.358   5.872 -0.1444 -0.1155 -0.2306
    1DIPC   NC313873  25.711  27.324   6.870  0.1890  0.2565  0.0784
    1DIPC   PO413874  25.818  27.496   6.537  0.1354 -0.2434  0.0335
    1DIPC   GL113875  25.896  27.664   6.079 -0.1183 -0.0074  0.2875
    1DIPC   GL213876  25.782  27.515   5.847  0.3371 -0.1015  0.0217
    1DIPC   C1A13877  26.192  27.967   5.735  0.1768  0.3773 -0.3392
    1DIPC   D2A13878  26.325  28.173   5.389 -0.1789 -0.0332 -0.0526
    1DIPC   D3A13879  26.379  27.816   5.188  0.0693 -0.0681 -0.1997
    1DIPC   C4A13880  26.336  27.487   4.771  0.1985 -0.0100  0.0701
    1DIPC   C1B13881  25.484  27.672   5.574 -0.3835  0.0642 -0.1126
    1DIPC   D2B13882  25.048  27.560   5.596  0.0893 -0.3168  0.1497
    1DIPC   D3B13883  25.205  27.170   5.413  0.3692  0.2039  0.0953
    1DIPC   C4B13884  25.050  26.986   4.966 -0.1190 -0.1537 -0.3407
    1DIPC   NC313885   1.249  22.944   5.270 -0.3219 -0.2086 -0.2269
    1DIPC   PO413886   1.701  22.854   5.174  0.0567  0.2875  0.0635
    1DIPC   GL113887   1.845  22.698   4.737 -0.6074 -0.3002 -0.0011
    1DIPC   GL213888   1.800  22.779   4.518  0.2642 -0.0977 -0.1242
    1DIPC   C1A13889   2.127  22.452   4.415  0.3254  0.0241 -0.1639
    1DIPC   D2A13890   2.330  22.036   4.335  0.1905  0.1190  0.1740
    1DIPC   D3A13891   2.200  22.159   3.933 -0.1786 -0.2247 -0.0987
    1DIPC   C4A13892   1.987  22.546   3.919  0.0083 -0.2213 -0.1145
    1DIPC   C1B13893   1.642  23.039   4.335  0.0385 -0.2387  0.2835
    1DIPC   D2B13894   1.632  23.512   4.055  0.2104 -0.1598  0.0762
    1DIPC   D3B13895   1.334  23.677   3.889  0.0355  0.1549 -0.0766
    1DIPC   C4B13896   0.898  23.687   4.005  0.3001 -0.1008 -0.0657
    1DIPC   NC313897  25.334   4.879   6.757  0.1433  0.0508  0.2489
    1DIPC   PO413898  25.389   5.378   6.612  0.3161 -0.0930 -0.2032
    1DIPC   GL113899  25.284   5.146   6.178 -0.0343 -0.1151  0.0617
    1DIPC   GL213900  25.101   4.895   6.213 -0.1764 -0.0039 -0.3971
    1DIPC   C1A13901  25.174   5.239   5.772  0.0973  0.0605  0.0318
    1DIPC   D2A13902  25.110   5.062   5.448 -0.2857 -0.0897  0.0151
    1DIPC   D3A13903  24.781   5.102   5.089 -0.3690  0.0714 -0.0986
    1DIPC   C4A13904  24.411   4.909   4.992 -0.0486 -0.0572  0.1608
    1DIPC   C1B13905  24.759   4.965   5.984 -0.0148  0.0893 -0.2419
    1DIPC   D2B13906  24.243   4.957   6.081  0.1011  0.0647  0.0809
    1DIPC   D3B13907  24.127   5.228   5.802  0.0847 -0.0755 -0.1533
    1DIPC   C4B13908  24.160   4.994   5.446  0.0773 -0.0852  0.0899
    1DIPC   NC313909  15.616  26.410   6.942 -0.1572 -0.1067 -0.3391
    1DIPC   PO413910  15.885  26.605   6.569 -0.0119  0.1924 -0.0206
    1DIPC   GL113911  16.001  26.401   6.294 -0.8314  0.0527  0.0154
    1DIPC   GL213912  15.784  26.336   6.065  0.0733 -0.2006 -0.1663
    1DIPC   C1A13913  16.196  26.647   5.913 -0.1950  0.2461  0.0607
    1DIPC   D2A13914  16.410  26.876   5.632 -0.0746 -0.1233  0.3830
    1DIPC   D3A13915  16.564  26.755   5.279  0.0046 -0.0529  0.3537
    1DIPC   C4A13916  16.674  27.043   5.053  0.0022 -0.0570 -0.1311
    1DIPC   C1B13917  15.576  25.909   6.058 -0.1385  0.1262 -0.3943
    1DIPC   D2B13918  15.299  25.528   6.129 -0.0957 -0.0971  0.2842
    1DIPC   D3B13919  15.250  25.634   5.732  0.1114 -0.0579 -0.1981
    1DIPC   C4B13920  14.815  25.404   5.645 -0.1903  0.0559 -0.2100
    1DIPC   NC313921  21.643   7.626   6.709  0.0008 -0.2177  0.3140
    1DIPC   PO413922  21.958   7.345   6.635  0.1836  0.2352  0.0136
    1DIPC   GL113923  22.003   7.413   6.216  0.1254 -0.2489 -0.0242
    1DIPC   GL213924  22.048   7.708   6.083 -0.1942 -0.0025 -0.1016
    1DIPC   C1A13925  21.663   7.148   5.985 -0.2746  0.1837 -0.1597
    1DIPC   D2A13926  21.540   7.125   5.517 -0.2923  0.0678  0.0186
    1DIPC   D3A13927  21.797   6.937   5.204  0.1295 -0.0450 -0.2851
    1DIPC   C4A13928  22.047   7.219   5.029 -0.4264  0.0977 -0.1963
    1DIPC   C1B13929  22.351   7.702   5.802 -0.2975 -0.0352  0.1499
    1DIPC   D2B13930  22.761   7.854   5.679 -0.0656  0.0371 -0.2399
    1DIPC   D3B13931  22.609   7.925   5.367 -0.2599  0.0760 -0.0125
    1DIPC   C4B13932  22.522   7.449   5.323  0.0226  0.0554 -0.2677
    1DIPC   NC313933  10.374  21.392   6.343  0.1937 -0.2850  0.3456
    1DIPC   PO413934  10.155  21.794   6.255 -0.0013  0.0698  0.0592
    1DIPC   GL113935  10.064  21.471   5.982 -0.1831 -0.0030  0.2356
    1DIPC   GL213936  10.407  21.464   5.773  0.2422 -0.1096  0.1801
    1DIPC   C1A13937   9.971  21.357   5.480 -0.2068 -0.5398  0.0308
    1DIPC   D2A13938  10.104  21.269   5.060  0.4380  0.3413  0.2228
    1DIPC   D3A13939   9.779  21.671   5.076 -0.1025 -0.0206  0.1063
    1DIPC   C4A13940   9.856  22.015   4.726  0.0890 -0.0729  0.0820
    1DIPC   C1B13941  10.546  21.369   5.414 -0.2330  0.1342 -0.0197
    1DIPC   D2B13942  10.549  21.553   4.910  0.0957  0.0685 -0.1375
    1DIPC   D3B13943  10.221  21.693   4.741 -0.1527 -0.1103  0.1625
    1DIPC   C4B13944  10.027  21.340   4.532  0.0534 -0.1833 -0.1906
    1DIPC   NC313945  17.533  25.953   7.007  0.1288  0.2639  0.2700
    1DIPC   PO413946  17.590  25.438   6.923 -0.1657 -0.2045 -0.1739
    1DIPC   GL113947  17.678  25.453   6.519 -0.1158 -0.0529  0.2411
    1DIPC   GL213948  17.422  25.305   6.286 -0.1661  0.1716  0.1348
    1DIPC   C1A13949  17.690  25.668   6.051 -0.2162 -0.1005 -0.0770
    1DIPC   D2A13950  17.814  26.082   5.940  0.2512 -0.0717 -0.0392
    1DIPC   D3A13951  17.636  26.424   6.176  0.2834 -0.1450  0.0703
    1DIPC   C4A13952  17.799  26.922   6.264 -0.0563  0.0051  0.4072
    1DIPC   C1B13953  17.540  25.082   5.867  0.0239 -0.2137  0.2611
    1DIPC   D2B13954  17.430  24.817   5.474 -0.0015  0.0202  0.1783
    1DIPC   D3B13955  17.226  24.932   5.106 -0.1441 -0.2664 -0.0805
    1DIPC   C4B13956  16.904  24.806   4.818  0.2633 -0.0472 -0.0039
    1DIPC   NC313957  25.870  12.593   5.488  0.0494  0.0696 -0.0244
    1DIPC   PO413958  26.387  12.485   5.590  0.2023  0.0391  0.1897
    1DIPC   GL113959  26.283  12.500   5.182  0.1286  0.1074 -0.2328
    1DIPC   GL213960  26.168  12.721   4.990  0.1845 -0.2578 -0.0565
    1DIPC   C1A13961  26.119  12.198   4.820  0.0951  0.0539  0.3025
    1DIPC   D2A13962  26.179  12.141   4.457 -0.1318  0.2008  0.3480
    1DIPC   D3A13963  26.179  12.673   4.474 -0.0975  0.1589  0.1681
    1DIPC   C4A13964  25.783  12.692   4.648  0.2193 -0.2129 -0.1530
    1DIPC   C1B13965  25.996  13.104   4.783  0.1735 -0.2254 -0.3041
    1DIPC   D2B13966  25.862  13.181   4.425 -0.2064  0.2189  0.0212
    1DIPC   D3B13967  25.818  12.967   4.004 -0.1302  0.1758 -0.1432
    1DIPC   C4B13968  25.619  12.659   3.691  0.0106  0.0405 -0.3144
    1DIPC   NC313969  13.095   7.430   8.337 -0.1995 -0.0049 -0.3692
    1DIPC   PO413970  13.040   7.174   7.977 -0.1490  0.1490 -0.0184
    1DIPC   GL113971  13.341   7.010   7.714 -0.2771  0.0616  0.1610
    1DIPC   GL213972  13.251   6.883   7.436 -0.0433 -0.0886  0.0537
    1DIPC   C1A13973  13.483   7.260   7.259 -0.1796  0.1883 -0.3308
    1DIPC   D2A13974  13.523   7.526   6.898 -0.5696  0.1555 -0.0607
    1DIPC   D3A13975  13.244   7.437   6.555 -0.1660 -0.1940  0.3666
    1DIPC   C4A13976  13.584   7.620   6.351 -0.0416  0.2849  0.0477
    1DIPC   C1B13977  12.800   6.937   7.411 -0.0791  0.0505  0.2731
    1DIPC   D2B13978  12.323   6.872   7.413 -0.1063  0.3019  0.0754
    1DIPC   D3B13979  12.333   6.791   6.930  0.0454 -0.2108 -0.0835
    1DIPC   C4B13980  11.949   6.782   6.761  0.1272 -0.2491  0.0351
    1DIPC   NC313981  24.416  28.691   6.852  0.0149  0.1129  0.1144
    1DIPC   PO413982  24.070  28.706   6.605  0.0386 -0.1122 -0.0880
    1DIPC   GL113983  23.999  29.073   6.261  0.0972 -0.1573  0.3345
    1DIPC   GL213984  23.739  29.195   6.008 -0.0453  0.0005  0.0033
    1DIPC   C1A13985  24.199  29.015   5.847 -0.0622 -0.0308 -0.1452
    1DIPC   D2A13986  24.148  29.023   5.401  0.2310 -0.3764  0.0926
    1DIPC   D3A13987  24.152  28.511   5.600  0.0788  0.1183 -0.1951
    1DIPC   C4A13988  24.160  28.193   5.371  0.2197 -0.2684 -0.1904
    1DIPC   C1B13989  24.023  29.490   5.668  0.3186 -0.0622 -0.0875
    1DIPC   D2B13990  24.059  29.671   5.240 -0.2703  0.2789  0.0302
    1DIPC   D3B13991  24.444  29.577   5.326  0.2629  0.0501  0.0739
    1DIPC   C4B13992  24.780  29.233   5.304 -0.1379  0.1054  0.3262
    1DIPC   NC313993   5.660  12.714   6.961  0.0438 -0.2652 -0.0441
    1DIPC   PO413994   5.399  12.928   6.849 -0.3813 -0.2801  0.1389
    1DIPC   GL113995   5.739  12.986   6.504 -0.2258 -0.0025 -0.3030
    1DIPC   GL213996   5.541  13.063   6.280  0.2955  0.0006 -0.0810
    1DIPC   C1A13997   6.135  13.265   6.429  0.1973  0.2958  0.2903
    1DIPC   D2A13998   6.373  13.354   6.196  0.2127 -0.0139  0.3710
    1DIPC   D3A13999   6.370  12.924   6.104 -0.0585 -0.2874 -0.2818
    1DIPC   C4A14000   6.414  12.804   5.670  0.3250  0.1385  0.0523
    1DIPC   C1B14001   5.792  13.100   5.902  0.1126 -0.0184  0.2073
    1DIPC   D2B14002   5.924  13.024   5.440 -0.3594 -0.0131  0.3105
    1DIPC   D3B14003   6.202  12.747   5.227 -0.3388 -0.0422  0.2198
    1DIPC   C4B14004   5.963  12.425   5.362  0.0861  0.3013 -0.4594
    1DIPC   NC314005  21.676  14.539   6.490  0.2018  0.1770  0.2268
    1DIPC   PO414006  21.501  14.198   6.192 -0.3114  0.1405 -0.2555
    1DIPC   GL114007  21.708  13.910   5.931 -0.0935  0.2847  0.1034
    1DIPC   GL214008  21.980  13.952   5.978 -0.0912 -0.0248  0.3442
    1DIPC   C1A14009  21.719  13.911   5.504 -0.1982  0.2029  0.0992
    1DIPC   D2A14010  21.698  13.831   4.990  0.1547  0.2472  0.0506
    1DIPC   D3A14011  21.840  13.722   4.492  0.1227 -0.0413 -0.0198
    1DIPC   C4A14012  21.663  13.814   4.127  0.2564 -0.0979  0.1868
    1DIPC   C1B14013  22.233  13.696   5.659 -0.0730  0.0751  0.1378
    1DIPC   D2B14014  22.624  13.541   5.468  0.1459  0.0864 -0.1981
    1DIPC   D3B14015  22.694  13.480   5.003 -0.0325 -0.0535  0.0793
    1DIPC   C4B14016  22.927  13.073   4.837 -0.3219 -0.0253  0.0634
    1DIPC   NC314017  27.597  12.016   5.942  0.4231  0.1231  0.3059
    1DIPC   PO414018  27.250  11.987   5.577 -0.2366  0.0934  0.0336
    1DIPC   GL114019  27.300  12.346   5.211  0.2880  0.1434 -0.0163
    1DIPC   GL214020  27.600  12.467   5.269 -0.4069 -0.4105 -0.0056
    1DIPC   C1A14021  27.013  12.334   4.829 -0.1125 -0.1853 -0.0160
    1DIPC   D2A14022  26.882  12.037   4.508  0.0882 -0.0125  0.2519
    1DIPC   D3A14023  27.092  12.384   4.295  0.0829  0.0715 -0.1648
    1DIPC   C4A14024  27.529  12.305   4.141  0.0944 -0.0101  0.2289
    1DIPC   C1B14025  27.489  12.649   4.868  0.1693 -0.1321  0.1107
    1DIPC   D2B14026  27.536  12.705   4.394  0.1407 -0.0522  0.1268
    1DIPC   D3B14027  27.515  13.064   4.217 -0.0092 -0.1893 -0.1391
    1DIPC   C4B14028  27.744  13.070   3.801  0.0472  0.0653 -0.1337
    1DIPC   NC314029   5.093  19.527   5.890 -0.0615  0.2313 -0.4363
    1DIPC   PO414030   4.804  19.408   5.515 -0.3285 -0.2698  0.0058
    1DIPC   GL114031   4.732  19.316   5.101 -0.1138  0.2934 -0.1524
    1DIPC   GL214032   4.885  19.650   4.989 -0.0004  0.0845  0.0210
    1DIPC   C1A14033   4.538  19.427   4.718  0.0735 -0.2004  0.2207
    1DIPC   D2A14034   4.317  19.591   4.282  0.1991  0.1270  0.1884
    1DIPC   D3A14035   3.879  19.578   4.112  0.0591  0.1948 -0.1312
    1DIPC   C4A14036   3.640  19.905   3.955  0.1224 -0.0627  0.1980
    1DIPC   C1B14037   5.019  19.337   4.703  0.1217 -0.2876 -0.2333
    1DIPC   D2B14038   5.259  18.975   4.645 -0.1657 -0.0015  0.0830
    1DIPC   D3B14039   5.722  18.973   4.672 -0.0558  0.0490 -0.1269
    1DIPC   C4B14040   5.905  18.683   4.963 -0.0936  0.0407 -0.3565
    1DIPC   NC314041  28.692   8.549   5.907 -0.3381  0.0646  0.2605
    1DIPC   PO414042  28.845   8.915   6.032 -0.0168  0.0428  0.0181
    1DIPC   GL114043  28.715   9.082   5.676  0.0374  0.1170  0.2767
    1DIPC   GL214044  29.032   9.200   5.567 -0.2369 -0.1504  0.1143
    1DIPC   C1A14045  28.603   9.305   5.218  0.1251 -0.1515 -0.0214
    1DIPC   D2A14046  28.871   9.211   4.846  0.0457  0.0559  0.1419
    1DIPC   D3A14047  28.736   9.055   4.436 -0.2072 -0.0503 -0.1141
    1DIPC   C4A14048  28.393   8.722   4.370 -0.3829  0.2244 -0.3033
    1DIPC   C1B14049  28.809   8.832   5.247  0.0175 -0.4293 -0.3016
    1DIPC   D2B14050  28.490   8.918   4.907  0.2119  0.0352  0.1967
    1DIPC   D3B14051  27.959   8.938   4.898 -0.0055  0.2637 -0.3759
    1DIPC   C4B14052  27.868   8.908   4.486 -0.2986 -0.2219 -0.1082
    1DIPC   NC314053  22.680   0.257   6.690 -0.1780 -0.0638 -0.4481
    1DIPC   PO414054  22.790   0.337   6.424 -0.1047 -0.2189 -0.0548
    1DIPC   GL114055  22.726   0.271   5.969  0.0851 -0.0893 -0.0855
    1DIPC   GL214056  22.892   0.074   5.768 -0.0125  0.0018 -0.3469
    1DIPC   C1A14057  22.609   0.416   5.543  0.2191  0.1000 -0.1203
    1DIPC   D2A14058  22.507   0.299   5.085  0.2440  0.0114  0.0962
    1DIPC   D3A14059  22.858   0.361   4.837  0.1496  0.0778 -0.0238
    1DIPC   C4A14060  22.805   0.131   4.423  0.0791  0.2037 -0.0156
    1DIPC   C1B14061  22.751  -0.351   5.737 -0.0294  0.1458 -0.1642
    1DIPC   D2B14062  22.836  -0.849   5.901  0.4565 -0.4708 -0.0674
    1DIPC   D3B14063  22.465  -1.188   5.850 -0.1008 -0.0769  0.2288
    1DIPC   C4B14064  22.136  -1.049   5.577  0.1941 -0.2671  0.1300
    1DIPC   NC314065  17.099  26.975   6.954  0.0084  0.2363  0.1581
    1DIPC   PO414066  16.660  26.967   6.612  0.0209  0.0136 -0.0181
    1DIPC   GL114067  16.728  27.054   6.255 -0.2041  0.2394  0.3603
    1DIPC   GL214068  16.545  27.197   6.023  0.0016  0.1169  0.3412
    1DIPC   C1A14069  16.848  26.750   5.963 -0.0732 -0.0845 -0.0265
    1DIPC   D2A14070  16.973  26.693   5.518 -0.4165 -0.2634 -0.2831
    1DIPC   D3A14071  17.086  27.072   5.398  0.1079  0.1502 -0.1655
    1DIPC   C4A14072  17.062  27.242   5.848 -0.2548  0.0606 -0.0912
    1DIPC   C1B14073  16.342  27.507   5.864 -0.0537  0.2485 -0.2056
    1DIPC   D2B14074  16.348  27.834   5.480  0.0369  0.0170 -0.2144
    1DIPC   D3B14075  16.235  27.471   5.160  0.2516  0.0552 -0.1662
    1DIPC   C4B14076  16.335  27.242   4.725 -0.0248 -0.1357 -0.1444
    1DIPC   NC314077  21.547   9.406   6.597 -0.0873 -0.1198  0.1304
    1DIPC   PO414078  21.744   9.736   6.401  0.1585 -0.3130 -0.1390
    1DIPC   GL114079  21.574   9.676   6.117  0.2050  0.1614 -0.2609
    1DIPC   GL214080  21.705   9.332   5.942 -0.1093 -0.1063  0.2334
    1DIPC   C1A14081  21.599   9.708   5.587 -0.3978  0.1132  0.0461
    1DIPC   D2A14082  21.540   9.724   5.093 -0.3725 -0.0120  0.1495
    1DIPC   D3A14083  21.390   9.326   5.324 -0.1848 -0.0221  0.3737
    1DIPC   C4A14084  21.281   9.175   5.771  0.1232 -0.2049  0.1895
    1DIPC   C1B14085  21.825   9.273   5.546  0.0283 -0.1105  0.0883
    1DIPC   D2B14086  21.874   8.894   5.280  0.1509 -0.2485  0.5066
    1DIPC   D3B14087  21.959   8.732   4.831  0.2157  0.1099  0.2731
    1DIPC   C4B14088  22.247   9.077   4.595  0.4823  0.3791 -0.1939
    1DIPC   NC314089   4.713  25.781   5.859  0.0080 -0.0333  0.0948
    1DIPC   PO414090   5.262  25.952   5.843 -0.0404 -0.0974 -0.1190
    1DIPC   GL114091   5.546  25.919   5.461 -0.0518  0.1795  0.3742
    1DIPC   GL214092   5.742  25.502   5.374 -0.1177 -0.0083 -0.1684
    1DIPC   C1A14093   5.509  26.064   5.057 -0.2011  0.3020 -0.0788
    1DIPC   D2A14094   5.283  26.215   4.688  0.2829  0.0831  0.0179
    1DIPC   D3A14095   5.333  26.294   4.181 -0.0369  0.1019 -0.0276
    1DIPC   C4A14096   5.117  26.680   3.963 -0.0550 -0.0785 -0.2852
    1DIPC   C1B14097   5.825  25.520   4.934  0.1151 -0.1223 -0.0411
    1DIPC   D2B14098   5.985  25.625   4.527  0.1252  0.0931 -0.0446
    1DIPC   D3B14099   5.848  25.330   4.346  0.2100 -0.2355  0.0550
    1DIPC   C4B14100   6.086  25.071   4.204 -0.2385  0.0453  0.0531
    1DIPC   NC314101   3.370  21.971   5.375 -0.2898  0.1623  0.0373
    1DIPC   PO414102   3.515  22.351   5.269 -0.0615  0.1620  0.2301
    1DIPC   GL114103   3.492  22.624   4.876  0.3032  0.2394  0.0335
    1DIPC   GL214104   3.201  22.784   4.789 -0.3586 -0.3184  0.0509
    1DIPC   C1A14105   3.618  22.623   4.483 -0.0940 -0.1989 -0.3714
    1DIPC   D2A14106   3.899  22.586   4.130  0.1514 -0.2057 -0.1832
    1DIPC   D3A14107   3.524  22.586   3.836  0.2180  0.1887 -0.1505
    1DIPC   C4A14108   3.472  22.648   3.324 -0.2076  0.1834 -0.2270
    1DIPC   C1B14109   3.269  23.216   4.504  0.2692 -0.2242 -0.2342
    1DIPC   D2B14110   3.685  23.230   4.369  0.0695  0.4039  0.1273
    1DIPC   D3B14111   3.267  22.865   4.208 -0.3017 -0.2100 -0.2468
    1DIPC   C4B14112   3.147  22.934   3.778 -0.1647  0.0462  0.1146
    1DIPC   NC314113   5.225  18.396   5.645 -0.3753  0.1739 -0.1116
    1DIPC   PO414114   4.966  18.540   5.422  0.0895 -0.2514 -0.0728
    1DIPC   GL114115   5.265  18.468   5.120 -0.1463  0.1258  0.2694
    1DIPC   GL214116   5.377  18.181   5.220  0.0841  0.0469  0.4135
    1DIPC   C1A14117   5.429  18.501   4.749 -0.1258  0.1760  0.0510
    1DIPC   D2A14118   5.675  18.336   4.409 -0.1366  0.1864  0.0208
    1DIPC   D3A14119   5.863  17.992   4.184  0.1072  0.3707 -0.3260
    1DIPC   C4A14120   5.671  17.673   3.990 -0.1222 -0.0037 -0.2211
    1DIPC   C1B14121   5.709  18.160   5.009  0.0246 -0.0006  0.0469
    1DIPC   D2B14122   6.016  18.117   4.765  0.0042  0.0816 -0.2076
    1DIPC   D3B14123   6.188  18.421   4.621 -0.0773  0.2508  0.1565
    1DIPC   C4B14124   6.512  18.453   4.672 -0.3576  0.0286 -0.2434
    1DIPC   NC314125  28.908  19.873   5.942  0.1555  0.0058 -0.2094
    1DIPC   PO414126  28.604  19.964   5.675  0.0077  0.2094 -0.0196
    1DIPC   GL114127  28.386  19.833   5.363  0.0001 -0.1098 -0.3249
    1DIPC   GL214128  28.605  19.928   5.150  0.0492 -0.1021 -0.4427
    1DIPC   C1A14129  28.087  19.680   5.126 -0.1235 -0.2468 -0.1816
    1DIPC   D2A14130  27.884  19.874   4.810 -0.1444 -0.2290  0.0750
    1DIPC   D3A14131  27.706  19.695   4.477  0.0685 -0.1961 -0.0121
    1DIPC   C4A14132  27.320  19.904   4.357  0.0893  0.0388 -0.2081
    1DIPC   C1B14133  28.854  19.634   4.948  0.0462 -0.2583 -0.0295
    1DIPC   D2B14134  29.237  19.701   4.693 -0.1610  0.3115 -0.0581
    1DIPC   D3B14135  29.666  19.658   4.614 -0.3393 -0.0883 -0.2308
    1DIPC   C4B14136  29.829  19.429   4.096  0.0492  0.0211 -0.2852
    1DIPC   NC314137   2.956   3.749   6.432  0.0877 -0.0161  0.2310
    1DIPC   PO414138   3.301   4.133   6.399 -0.3440 -0.0563  0.1005
    1DIPC   GL114139   3.476   3.957   6.079  0.1391 -0.2779  0.0970
    1DIPC   GL214140   3.756   4.154   5.916  0.0846  0.5032  0.1105
    1DIPC   C1A14141   3.301   3.711   5.673  0.0937  0.0590  0.2337
    1DIPC   D2A14142   3.396   3.319   5.570  0.2313 -0.1052 -0.1783
    1DIPC   D3A14143   3.661   3.050   5.304  0.1698 -0.3478 -0.3301
    1DIPC   C4A14144   3.464   2.765   5.154  0.3471 -0.1400 -0.0147
    1DIPC   C1B14145   4.102   4.109   5.675 -0.1598 -0.0575 -0.1092
    1DIPC   D2B14146   4.255   3.823   5.342  0.1533  0.0695  0.2837
    1DIPC   D3B14147   4.537   3.921   5.032  0.0167 -0.0455 -0.0957
    1DIPC   C4B14148   4.425   3.760   4.651  0.0810  0.1409 -0.0739
    1DIPC   NC314149  22.357  22.772   6.636  0.0824 -0.2256 -0.2604
    1DIPC   PO414150  21.924  23.083   6.684 -0.0837 -0.2172 -0.1911
    1DIPC   GL114151  22.143  22.980   6.219 -0.1200 -0.2006 -0.0615
    1DIPC   GL214152  22.039  23.158   6.001  0.3456  0.0464  0.1861
    1DIPC   C1A14153  22.410  22.900   5.831  0.1462 -0.0466  0.3893
    1DIPC   D2A14154  22.700  23.070   5.552 -0.1968  0.1895 -0.0587
    1DIPC   D3A14155  22.773  23.522   5.634 -0.0296  0.0023 -0.0689
    1DIPC   C4A14156  22.707  24.036   5.739  0.0427 -0.0250 -0.0948
    1DIPC   C1B14157  22.292  23.469   5.741  0.2212 -0.2529  0.0689
    1DIPC   D2B14158  22.335  23.805   5.526  0.3761 -0.2377  0.1081
    1DIPC   D3B14159  22.524  24.279   5.333 -0.4657  0.1317  0.3120
    1DIPC   C4B14160  22.664  24.638   5.507  0.0263 -0.1846  0.4304
    1DIPC   NC314161   7.887  26.234   6.083 -0.2053 -0.0301 -0.0605
    1DIPC   PO414162   8.228  26.457   6.298 -0.0350 -0.3294 -0.0653
    1DIPC   GL114163   8.170  26.718   5.954 -0.3624 -0.0153  0.0238
    1DIPC   GL214164   8.226  27.001   6.077  0.2382  0.0740  0.0707
    1DIPC   C1A14165   8.116  26.572   5.496 -0.0433  0.1785  0.1140
    1DIPC   D2A14166   8.344  26.564   5.092 -0.0647  0.1275 -0.0064
    1DIPC   D3A14167   8.176  26.970   5.118 -0.0861  0.1239  0.0665
    1DIPC   C4A14168   7.786  27.192   4.883 -0.0803 -0.1170 -0.2514
    1DIPC   C1B14169   8.390  27.051   5.669 -0.1586  0.1216  0.2941
    1DIPC   D2B14170   8.616  27.016   5.274 -0.1683  0.2543  0.2354
    1DIPC   D3B14171   8.576  27.442   5.182 -0.0638 -0.1878 -0.0424
    1DIPC   C4B14172   8.545  27.765   4.872  0.1327  0.2974 -0.0112
    1DIPC   NC314173   9.819  11.511   7.895 -0.0209 -0.1616  0.3770
    1DIPC   PO414174  10.114  11.189   7.769  0.1700  0.1934  0.1653
    1DIPC   GL114175  10.003  11.005   7.360 -0.0707 -0.7226 -0.1929
    1DIPC   GL214176  10.052  10.656   7.358  0.4110  0.4591 -0.0617
    1DIPC   C1A14177  10.063  10.941   6.824  0.1684  0.2702 -0.0119
    1DIPC   D2A14178  10.151  11.196   6.397 -0.0319  0.3071 -0.0642
    1DIPC   D3A14179  10.276  10.873   6.182  0.1518  0.0996  0.0905
    1DIPC   C4A14180  10.073  10.831   5.865 -0.1913  0.1413  0.0029
    1DIPC   C1B14181   9.792  10.307   7.241 -0.2732 -0.0410  0.1332
    1DIPC   D2B14182   9.784   9.942   6.893  0.0977 -0.2486  0.1378
    1DIPC   D3B14183   9.427  10.154   6.686 -0.0119  0.0202 -0.0767
    1DIPC   C4B14184   9.503  10.070   6.187  0.0540  0.0444 -0.1301
    1DIPC   NC314185  26.741  23.474   6.704  0.0463 -0.0792  0.2450
    1DIPC   PO414186  26.774  23.866   6.450  0.0777  0.1226  0.1149
    1DIPC   GL114187  26.855  23.921   6.054 -0.1302  0.2296 -0.2627
    1DIPC   GL214188  26.693  23.972   5.772 -0.3157 -0.0919  0.0866
    1DIPC   C1A14189  27.128  24.299   6.004 -0.2254 -0.1089  0.0265
    1DIPC   D2A14190  27.304  24.731   5.912  0.2841  0.0313 -0.1900
    1DIPC   D3A14191  27.037  25.014   5.750 -0.2122  0.0884  0.1382
    1DIPC   C4A14192  26.644  24.961   5.436  0.1863 -0.1451  0.0442
    1DIPC   C1B14193  26.812  24.024   5.247  0.2242 -0.2415  0.0967
    1DIPC   D2B14194  26.503  24.055   4.900  0.1070  0.2713  0.0954
    1DIPC   D3B14195  26.254  24.168   5.346  0.1320  0.0658 -0.0635
    1DIPC   C4B14196  25.854  23.899   5.232 -0.0512 -0.1368  0.3518
    1DIPC   NC314197   4.910  24.220   5.839  0.1304  0.0541 -0.1589
    1DIPC   PO414198   5.269  24.086   5.588  0.1127  0.2583  0.1286
    1DIPC   GL114199   5.173  23.952   5.063 -0.3417  0.1994  0.0352
    1DIPC   GL214200   5.329  23.679   4.910  0.0658  0.0438  0.1194
    1DIPC   C1A14201   5.253  23.969   4.555  0.1328 -0.2431  0.3044
    1DIPC   D2A14202   5.330  23.789   4.088 -0.3374 -0.1343  0.4546
    1DIPC   D3A14203   5.623  23.693   3.940 -0.0614 -0.0372 -0.0666
    1DIPC   C4A14204   5.681  23.398   3.634 -0.0840  0.2692  0.0304
    1DIPC   C1B14205   5.765  23.771   4.794 -0.3735 -0.2312 -0.2329
    1DIPC   D2B14206   5.957  23.788   4.400 -0.3109  0.2782 -0.1258
    1DIPC   D3B14207   5.928  24.097   4.103 -0.2448 -0.0254 -0.0206
    1DIPC   C4B14208   5.509  24.245   4.114  0.2350  0.0509  0.0057
    1DIPC   NC314209   6.724  13.480   6.915  0.0123 -0.1231 -0.1110
    1DIPC   PO414210   6.505  13.779   6.778 -0.1925 -0.0783 -0.1368
    1DIPC   GL114211   6.451  13.832   6.411 -0.1409 -0.2448 -0.0573
    1DIPC   GL214212   6.283  13.991   6.146  0.1326 -0.0792 -0.0161
    1DIPC   C1A14213   6.734  13.706   6.092 -0.0734 -0.0452  0.1273
    1DIPC   D2A14214   6.701  13.309   5.774 -0.0599 -0.2025 -0.3815
    1DIPC   D3A14215   6.734  13.067   5.495  0.0996  0.3268 -0.0383
    1DIPC   C4A14216   6.910  13.221   5.025  0.0676 -0.2474  0.2572
    1DIPC   C1B14217   6.393  13.797   5.762  0.0169 -0.1202  0.0470
    1DIPC   D2B14218   6.533  13.513   5.374 -0.0591 -0.2184  0.2060
    1DIPC   D3B14219   6.431  13.636   4.943  0.1461 -0.1328 -0.0785
    1DIPC   C4B14220   6.591  14.023   4.729  0.2106  0.0726 -0.2262
    1DIPC   NC314221   8.795  27.298   6.508  0.0319 -0.0806  0.1315
    1DIPC   PO414222   9.255  27.157   6.497 -0.0727 -0.0738 -0.1911
    1DIPC   GL114223   9.468  27.195   6.033 -0.0583  0.1579 -0.1691
    1DIPC   GL214224   9.846  27.258   5.954  0.0335 -0.0753  0.0270
    1DIPC   C1A14225   9.429  27.202   5.559 -0.0544  0.2080 -0.0825
    1DIPC   D2A14226   9.534  27.037   5.257  0.1270 -0.1795  0.0619
    1DIPC   D3A14227   9.421  26.703   4.926 -0.1638 -0.1093  0.0898
    1DIPC   C4A14228   9.245  26.874   4.510  0.0179  0.0079 -0.0203
    1DIPC   C1B14229   9.730  26.836   5.704  0.0409  0.0687 -0.0758
    1DIPC   D2B14230   9.641  26.501   5.371 -0.3277 -0.0907  0.2938
    1DIPC   D3B14231   9.235  26.288   5.219  0.0243 -0.0591 -0.1728
    1DIPC   C4B14232   9.025  26.448   4.862 -0.3334  0.2574 -0.1319
    1DIPC   NC314233  12.561  12.760   7.087  0.0294 -0.0367  0.0073
    1DIPC   PO414234  12.659  13.095   7.080 -0.0134  0.0481  0.1155
    1DIPC   GL114235  12.364  12.911   6.661  0.1855  0.1675  0.2918
    1DIPC   GL214236  12.385  12.847   6.474  0.0919 -0.2347 -0.3026
    1DIPC   C1A14237  11.905  12.678   6.458  0.0746  0.3138 -0.1747
    1DIPC   D2A14238  11.550  12.652   6.202  0.0270  0.0664  0.1104
    1DIPC   D3A14239  11.496  12.921   6.655  0.1274 -0.1758 -0.2235
    1DIPC   C4A14240  11.367  13.453   6.719  0.2136 -0.0586  0.0835
    1DIPC   C1B14241  12.496  12.581   6.036 -0.1188  0.0356  0.0676
    1DIPC   D2B14242  12.283  12.508   5.652  0.0165  0.1819 -0.1630
    1DIPC   D3B14243  12.014  12.494   5.344 -0.0163  0.1309 -0.2366
    1DIPC   C4B14244  11.857  12.147   5.399 -0.0490  0.1736  0.2761
    1DIPC   NC314245  25.675   3.285   6.706 -0.2379 -0.0511 -0.2923
    1DIPC   PO414246  25.718   3.561   6.411  0.0032 -0.0225  0.0346
    1DIPC   GL114247  25.706   3.837   5.997  0.1036 -0.2377 -0.3517
    1DIPC   GL214248  25.972   4.097   5.932 -0.0084  0.2254  0.0461
    1DIPC   C1A14249  25.582   3.909   5.601 -0.1358 -0.2064 -0.3208
    1DIPC   D2A14250  25.602   3.791   5.221 -0.1996 -0.0395 -0.1990
    1DIPC   D3A14251  26.045   3.703   4.991  0.0470  0.0793 -0.0173
    1DIPC   C4A14252  26.123   3.976   4.790  0.1286 -0.0098  0.0849
    1DIPC   C1B14253  26.060   4.083   5.457  0.1430 -0.2889  0.0164
    1DIPC   D2B14254  26.408   4.098   5.189  0.1518  0.0338 -0.4297
    1DIPC   D3B14255  26.559   4.306   5.585  0.0072  0.2252 -0.1763
    1DIPC   C4B14256  26.796   4.565   5.661 -0.1257 -0.1538  0.0223
    1DIPC   NC314257   5.259  21.832   6.002 -0.1317  0.0531 -0.0975
    1DIPC   PO414258   5.189  21.856   5.608  0.0651  0.0420 -0.0346
    1DIPC   GL114259   5.327  22.029   5.218 -0.0006 -0.2320  0.1064
    1DIPC   GL214260   5.554  22.195   5.114 -0.1472 -0.0581 -0.2455
    1DIPC   C1A14261   5.349  21.867   4.742  0.2516 -0.1591  0.0647
    1DIPC   D2A14262   5.473  21.496   4.565  0.0708  0.0177  0.0019
    1DIPC   D3A14263   5.759  21.779   4.383 -0.1809 -0.0137  0.2981
    1DIPC   C4A14264   6.067  22.014   4.581 -0.0554 -0.4365  0.0897
    1DIPC   C1B14265   5.994  21.951   5.154 -0.0593 -0.0875  0.0736
    1DIPC   D2B14266   6.190  21.937   5.444 -0.1538  0.1134  0.0273
    1DIPC   D3B14267   6.559  21.860   5.152 -0.1642 -0.1297 -0.0051
    1DIPC   C4B14268   6.484  22.166   4.859 -0.3760  0.2672 -0.1260
    1DIPC   NC314269  27.451   2.149   6.204 -0.0207  0.3859  0.0261
    1DIPC   PO414270  27.855   2.430   5.971  0.1357 -0.0748 -0.1850
    1DIPC   GL114271  27.738   2.609   5.548 -0.0379  0.1459  0.2002
    1DIPC   GL214272  27.563   2.243   5.533  0.0361 -0.1668 -0.0712
    1DIPC   C1A14273  27.633   2.770   5.120 -0.1838 -0.1985  0.0264
    1DIPC   D2A14274  27.399   2.562   4.784 -0.1930  0.0840 -0.3899
    1DIPC   D3A14275  27.386   2.253   5.072 -0.1343  0.0507 -0.0152
    1DIPC   C4A14276  27.728   1.887   5.088  0.0326  0.0460 -0.0146
    1DIPC   C1B14277  27.360   1.866   5.408 -0.0843  0.2289 -0.2567
    1DIPC   D2B14278  27.604   1.453   5.286 -0.2356 -0.1079 -0.0657
    1DIPC   D3B14279  27.556   1.327   4.792 -0.1472 -0.0928 -0.0197
    1DIPC   C4B14280  27.454   1.644   4.412  0.0120 -0.1350  0.1951
    1DIPC   NC314281   7.799   7.768   7.217  0.1118 -0.1314 -0.0977
    1DIPC   PO414282   7.597   7.300   7.350  0.0716 -0.0358 -0.1294
    1DIPC   GL114283   7.553   7.259   6.896 -0.1509 -0.1147  0.0914
    1DIPC   GL214284   7.723   7.533   6.750  0.0462  0.1836 -0.2395
    1DIPC   C1A14285   7.495   7.230   6.378  0.0878  0.5223  0.0187
    1DIPC   D2A14286   7.439   7.518   5.929 -0.0558 -0.0870 -0.1236
    1DIPC   D3A14287   7.006   7.567   5.907 -0.1006  0.0238  0.0930
    1DIPC   C4A14288   6.756   7.560   5.576  0.0005  0.2601 -0.0817
    1DIPC   C1B14289   7.797   7.656   6.396  0.1877 -0.1864  0.0392
    1DIPC   D2B14290   8.152   7.801   6.254 -0.0425  0.1429 -0.5101
    1DIPC   D3B14291   8.229   7.484   5.938  0.4214  0.1648  0.2727
    1DIPC   C4B14292   8.512   7.480   5.556  0.1454 -0.1784 -0.0404
    1DIPC   NC314293  21.057  18.657   6.922  0.2892  0.0383 -0.1487
    1DIPC   PO414294  21.106  18.479   6.470  0.0738  0.1961 -0.2749
    1DIPC   GL114295  21.224  18.667   6.128 -0.0910 -0.0886  0.0186
    1DIPC   GL214296  21.264  18.530   5.877  0.1376 -0.1601  0.4131
    1DIPC   C1A14297  21.161  19.145   5.856 -0.2788 -0.1632 -0.0387
    1DIPC   D2A14298  21.265  19.373   5.538  0.0016  0.1315  0.1261
    1DIPC   D3A14299  21.668  19.128   5.646  0.2471 -0.0237  0.0131
    1DIPC   C4A14300  22.055  19.266   5.477 -0.0701 -0.2056  0.3083
    1DIPC   C1B14301  21.291  18.729   5.489 -0.0482 -0.3774 -0.1069
    1DIPC   D2B14302  21.736  18.823   5.288  0.2065 -0.1513 -0.1935
    1DIPC   D3B14303  21.682  19.219   5.142  0.1844 -0.2428 -0.1772
    1DIPC   C4B14304  21.305  19.455   4.930 -0.0151 -0.0548 -0.3430
    1DIPC   NC314305   8.441   5.185   6.991  0.1893 -0.0831  0.1003
    1DIPC   PO414306   8.682   5.544   7.099  0.0309 -0.0302 -0.1718
    1DIPC   GL114307   8.554   5.589   6.669 -0.0187 -0.1458  0.0284
    1DIPC   GL214308   8.551   5.340   6.517  0.0678  0.4564  0.2221
    1DIPC   C1A14309   8.747   5.714   6.290 -0.0221  0.0369  0.0023
    1DIPC   D2A14310   8.810   5.655   5.843 -0.0721  0.1301  0.2022
    1DIPC   D3A14311   8.739   5.568   5.456 -0.1663  0.1311 -0.1554
    1DIPC   C4A14312   8.432   5.136   5.237  0.3349  0.0987 -0.0840
    1DIPC   C1B14313   8.638   5.238   6.193 -0.4977 -0.1179  0.0189
    1DIPC   D2B14314   8.514   4.986   5.890 -0.2223 -0.0367 -0.2905
    1DIPC   D3B14315   8.649   4.769   5.582 -0.0249 -0.1472 -0.4145
    1DIPC   C4B14316   9.059   4.541   5.599  0.2793  0.1756  0.1325
    1DIPC   NC314317   8.407  25.156   6.664 -0.2478  0.1599 -0.3210
    1DIPC   PO414318   8.632  25.060   6.365  0.0488  0.0354  0.3638
    1DIPC   GL114319   8.631  25.424   6.076 -0.0177 -0.2520  0.3423
    1DIPC   GL214320   8.918  25.323   5.837  0.0230 -0.1566  0.2091
    1DIPC   C1A14321   8.587  25.729   5.803 -0.2872 -0.3505 -0.0371
    1DIPC   D2A14322   8.327  26.194   5.844 -0.1354  0.2151 -0.2469
    1DIPC   D3A14323   7.918  26.160   5.631  0.0416 -0.1589  0.0635
    1DIPC   C4A14324   7.850  25.766   5.331  0.3104 -0.1634 -0.2098
    1DIPC   C1B14325   8.757  25.313   5.386 -0.0084 -0.0693 -0.0264
    1DIPC   D2B14326   8.645  25.302   4.983 -0.0691 -0.0647  0.2218
    1DIPC   D3B14327   8.491  25.651   4.679 -0.8064 -0.3117  0.1125
    1DIPC   C4B14328   8.105  25.853   4.862  0.1271  0.0116 -0.0146
    1DIPC   NC314329  27.137  26.213   6.336 -0.0926 -0.0332  0.2109
    1DIPC   PO414330  27.487  25.957   6.043 -0.0464 -0.4816 -0.0663
    1DIPC   GL114331  27.469  26.119   5.620 -0.3913  0.1572  0.2141
    1DIPC   GL214332  27.606  26.397   5.364  0.3055  0.0248  0.0443
    1DIPC   C1A14333  27.246  25.879   5.408  0.1352 -0.2843  0.1826
    1DIPC   D2A14334  27.010  25.900   5.060  0.2111  0.0905  0.2982
    1DIPC   D3A14335  27.176  25.968   4.641  0.0589  0.2345 -0.0930
    1DIPC   C4A14336  27.155  25.570   4.356  0.0244 -0.3568  0.2150
    1DIPC   C1B14337  27.424  26.798   5.308  0.2545  0.2156  0.3449
    1DIPC   D2B14338  27.506  27.236   5.129  0.2177  0.1642 -0.1107
    1DIPC   D3B14339  27.379  27.391   4.749  0.0086 -0.1078  0.1019
    1DIPC   C4B14340  27.479  27.405   4.340 -0.0695  0.1510 -0.0084
    1DIPC   NC314341  23.829   9.577   6.757  0.2326  0.4717  0.0517
    1DIPC   PO414342  23.691   9.464   6.313  0.0946  0.3129 -0.1864
    1DIPC   GL114343  23.858   9.484   5.915 -0.0481  0.2170 -0.0961
    1DIPC   GL214344  24.146   9.283   5.922  0.0537  0.1355 -0.1093
    1DIPC   C1A14345  23.772   9.406   5.438 -0.3443 -0.0143  0.1407
    1DIPC   D2A14346  23.859   9.637   5.044  0.2274 -0.0307 -0.0810
    1DIPC   D3A14347  23.682   9.294   4.716  0.3310 -0.0755  0.0498
    1DIPC   C4A14348  23.941   8.936   4.611 -0.0652  0.4244 -0.1459
    1DIPC   C1B14349  24.256   9.162   5.499  0.2304 -0.0900  0.2287
    1DIPC   D2B14350  24.080   9.209   5.123 -0.2739  0.0301  0.1058
    1DIPC   D3B14351  23.832   8.914   5.149  0.0391 -0.2130 -0.3043
    1DIPC   C4B14352  23.552   8.787   4.850 -0.3415  0.0233  0.2531
    1DIPC   NC314353  21.555  26.291   6.333 -0.1362  0.1354  0.3074
    1DIPC   PO414354  21.569  26.769   6.212  0.0588 -0.2140  0.0143
    1DIPC   GL114355  21.776  26.752   5.750 -0.0931 -0.4537  0.0957
    1DIPC   GL214356  21.689  26.678   5.369  0.1525 -0.1381  0.0476
    1DIPC   C1A14357  22.166  26.596   5.519  0.3272 -0.0904 -0.3139
    1DIPC   D2A14358  22.624  26.635   5.503  0.2094  0.1834 -0.0481
    1DIPC   D3A14359  22.820  26.693   5.135 -0.1712 -0.0673  0.2482
    1DIPC   C4A14360  23.250  26.573   5.232 -0.0934  0.2646  0.0776
    1DIPC   C1B14361  21.500  26.994   4.993  0.0274 -0.0025 -0.1447
    1DIPC   D2B14362  21.136  27.357   4.875 -0.0860 -0.3951 -0.2779
    1DIPC   D3B14363  20.910  27.741   5.217  0.0705 -0.0762 -0.3192
    1DIPC   C4B14364  21.009  27.707   5.667 -0.0243 -0.0950 -0.1925
    1DIPC   NC314365   5.833   7.412   7.393 -0.0218  0.2130 -0.1687
    1DIPC   PO414366   5.452   7.510   7.222 -0.1019  0.3261  0.0558
    1DIPC   GL114367   5.712   7.784   6.919  0.0749  0.1625  0.2547
    1DIPC   GL214368   5.967   7.779   7.047  0.1301  0.3213 -0.0415
    1DIPC   C1A14369   5.959   7.551   6.568 -0.0362  0.2100 -0.0660
    1DIPC   D2A14370   6.198   7.129   6.523 -0.2335  0.5109 -0.0099
    1DIPC   D3A14371   6.298   7.038   6.175  0.0777  0.0223 -0.4928
    1DIPC   C4A14372   6.735   7.162   6.095  0.0063  0.0258  0.1449
    1DIPC   C1B14373   6.361   7.646   6.916  0.1440  0.1686 -0.2317
    1DIPC   D2B14374   6.636   7.370   6.856  0.2296 -0.2477  0.0728
    1DIPC   D3B14375   6.735   6.987   6.678 -0.0152 -0.0020  0.2491
    1DIPC   C4B14376   7.103   6.924   6.482 -0.2490  0.1085  0.0822
    1DIPC   NC314377  23.215  21.784   6.181  0.2120 -0.0688 -0.1812
    1DIPC   PO414378  22.648  21.789   6.253 -0.1253  0.0289 -0.1969
    1DIPC   GL114379  22.536  21.685   5.779  0.0460 -0.2727 -0.2092
    1DIPC   GL214380  22.380  21.895   5.574  0.2811  0.1443 -0.2853
    1DIPC   C1A14381  22.627  21.365   5.399  0.0182  0.1687  0.2461
    1DIPC   D2A14382  22.550  21.252   5.008  0.1795 -0.0755 -0.1397
    1DIPC   D3A14383  22.600  21.640   4.774 -0.2790  0.0465  0.1644
    1DIPC   C4A14384  22.792  21.781   4.381  0.0030 -0.1273  0.0143
    1DIPC   C1B14385  22.274  21.808   5.101  0.1358 -0.2532  0.0633
    1DIPC   D2B14386  22.083  22.061   4.727  0.1085  0.0128 -0.2934
    1DIPC   D3B14387  22.461  22.134   4.500  0.0296  0.1799  0.0018
    1DIPC   C4B14388  22.683  22.444   4.329 -0.2048  0.1328  0.2099
    1DIPC   NC314389  16.822   3.590   7.381  0.5359  0.0503  0.0492
    1DIPC   PO414390  16.617   3.223   7.534  0.0086 -0.0891  0.3644
    1DIPC   GL114391  16.433   3.202   7.055  0.2961 -0.1560 -0.0845
    1DIPC   GL214392  16.462   3.575   7.029  0.0221 -0.2407  0.1123
    1DIPC   C1A14393  16.130   2.911   6.907  0.1137 -0.0196 -0.5131
    1DIPC   D2A14394  15.884   2.995   6.522 -0.0290  0.0007 -0.0033
    1DIPC   D3A14395  15.852   3.456   6.363  0.0971  0.1466  0.0974
    1DIPC   C4A14396  15.504   3.646   6.231  0.0064 -0.0781 -0.2872
    1DIPC   C1B14397  16.178   3.574   6.721 -0.2602 -0.2685 -0.0170
    1DIPC   D2B14398  16.086   3.971   6.550 -0.0958 -0.1159 -0.2377
    1DIPC   D3B14399  16.112   3.829   6.130 -0.1989  0.0722 -0.1194
    1DIPC   C4B14400  15.761   3.862   5.861 -0.0733 -0.3558 -0.0087
    1DIPC   NC314401  18.847  19.808   6.885 -0.2394 -0.0761  0.0083
    1DIPC   PO414402  18.385  19.903   6.772 -0.2079  0.0712 -0.3909
    1DIPC   GL114403  18.520  20.075   6.355  0.1718 -0.2859 -0.1261
    1DIPC   GL214404  18.250  20.262   6.404  0.1366 -0.0452  0.1043
    1DIPC   C1A14405  18.636  20.205   5.921  0.3561 -0.0219  0.0666
    1DIPC   D2A14406  18.943  20.384   5.596 -0.1259  0.0842 -0.1963
    1DIPC   D3A14407  19.257  20.366   5.255  0.0798  0.0202 -0.1726
    1DIPC   C4A14408  19.213  20.558   4.764 -0.0427  0.0481  0.2741
    1DIPC   C1B14409  18.103  20.041   6.060 -0.0155 -0.0643  0.3836
    1DIPC   D2B14410  18.161  20.077   5.638 -0.2049 -0.0556  0.0146
    1DIPC   D3B14411  18.206  19.677   5.753  0.0884  0.0193  0.1718
    1DIPC   C4B14412  18.490  19.692   6.034  0.1765 -0.2057  0.0026
    1DIPC   NC314413  15.398   1.223   7.457  0.0106 -0.2327 -0.0032
    1DIPC   PO414414  15.508   1.432   7.036 -0.2516 -0.0319  0.2786
    1DIPC   GL114415  15.344   1.284   6.657  0.0105 -0.0148 -0.0168
    1DIPC   GL214416  15.043   1.381   6.656  0.0694 -0.0536  0.6832
    1DIPC   C1A14417  15.333   1.270   6.147 -0.1591 -0.0201 -0.0428
    1DIPC   D2A14418  15.277   0.985   5.805 -0.0878  0.2761  0.1995
    1DIPC   D3A14419  15.253   0.572   5.499  0.1613  0.0580 -0.3315
    1DIPC   C4A14420  15.011   0.243   5.545  0.0587 -0.2950  0.1529
    1DIPC   C1B14421  14.935   1.571   6.163  0.0790  0.3863  0.1617
    1DIPC   D2B14422  15.010   1.998   6.022 -0.3123  0.2549 -0.0179
    1DIPC   D3B14423  14.897   2.182   5.671  0.0277 -0.0328  0.3352
    1DIPC   C4B14424  15.135   2.343   5.331 -0.0205 -0.0245  0.2220
    1DIPC   NC314425   3.245  27.882   7.352  0.2565  0.0765  0.3531
    1DIPC   PO414426   3.506  27.716   6.911 -0.2240  0.0047 -0.2766
    1DIPC   GL114427   3.457  27.674   6.411  0.1073  0.2112 -0.1328
    1DIPC   GL214428   3.263  27.906   6.398 -0.0511  0.2489 -0.1954
    1DIPC   C1A14429   3.702  27.850   6.147 -0.1164  0.0726  0.1273
    1DIPC   D2A14430   3.832  27.853   5.742 -0.3359  0.0872 -0.2824
    1DIPC   D3A14431   4.070  27.994   5.630 -0.0034 -0.1081 -0.1013
    1DIPC   C4A14432   4.467  27.827   5.426 -0.0465  0.0994 -0.1611
    1DIPC   C1B14433   3.231  27.866   5.985  0.2820 -0.1800 -0.0429
    1DIPC   D2B14434   3.209  27.819   5.644  0.0015 -0.0234 -0.1290
    1DIPC   D3B14435   2.970  27.459   5.728  0.0603  0.0906  0.2039
    1DIPC   C4B14436   2.967  27.032   5.470 -0.0031 -0.3810 -0.0037
    1DIPC   NC314437   0.991  10.937   6.009  0.0085  0.0709 -0.4089
    1DIPC   PO414438   1.276  10.588   6.092 -0.0920 -0.0414  0.1282
    1DIPC   GL114439   1.104  10.336   5.757  0.1953  0.2649  0.2291
    1DIPC   GL214440   0.799  10.437   5.691  0.1103 -0.1302  0.1453
    1DIPC   C1A14441   1.055  10.555   5.311  0.1038 -0.0564  0.0925
    1DIPC   D2A14442   1.094  10.857   4.993 -0.2064  0.0236  0.1012
    1DIPC   D3A14443   1.360  11.055   5.246 -0.2663  0.0289  0.0409
    1DIPC   C4A14444   1.655  11.263   5.050 -0.1885  0.0678  0.3281
    1DIPC   C1B14445   0.440  10.451   5.320 -0.0186  0.0410  0.0398
    1DIPC   D2B14446   0.092  10.384   5.160 -0.2281 -0.1656 -0.0148
    1DIPC   D3B14447   0.246  10.475   4.748  0.0107  0.3952  0.2344
    1DIPC   C4B14448   0.589  10.245   4.596  0.0123  0.0447 -0.1172
    1DIPC   NC314449  21.341  11.141   7.178  0.4399  0.0754  0.0476
    1DIPC   PO414450  21.085  10.749   6.997 -0.3807 -0.1648  0.0691
    1DIPC   GL114451  21.320  10.758   6.580  0.0329 -0.0203 -0.0950
    1DIPC   GL214452  21.366  10.952   6.321 -0.1311 -0.0845 -0.2372
    1DIPC   C1A14453  21.519  10.481   6.178  0.2170 -0.0681  0.0043
    1DIPC   D2A14454  21.784  10.112   6.021 -0.0218 -0.3352 -0.0031
    1DIPC   D3A14455  21.489  10.312   5.651  0.0214 -0.2518  0.2247
    1DIPC   C4A14456  21.410  10.206   5.281 -0.1528 -0.1884  0.2826
    1DIPC   C1B14457  21.384  11.335   6.013  0.2167 -0.2462 -0.1747
    1DIPC   D2B14458  21.284  11.687   5.875  0.1670 -0.0020  0.0674
    1DIPC   D3B14459  21.392  11.600   5.511 -0.5140 -0.0925 -0.0593
    1DIPC   C4B14460  21.322  11.843   5.112  0.0258 -0.0062 -0.3565
    1DIPC   NC314461  24.200   2.099   6.711  0.1066  0.1584  0.0665
    1DIPC   PO414462  24.522   1.869   6.578 -0.1240  0.1569  0.0718
    1DIPC   GL114463  24.578   1.685   6.237 -0.2668  0.3316 -0.1136
    1DIPC   GL214464  24.927   1.731   6.162 -0.2602  0.2533  0.1271
    1DIPC   C1A14465  24.668   1.457   5.854 -0.0969 -0.2942  0.0091
    1DIPC   D2A14466  24.688   1.207   5.491 -0.0254 -0.0078 -0.1102
    1DIPC   D3A14467  24.388   1.364   5.201  0.0267  0.0548 -0.2153
    1DIPC   C4A14468  24.035   1.468   5.306  0.0972 -0.2787  0.1051
    1DIPC   C1B14469  25.116   1.838   5.794 -0.3039 -0.1879  0.0523
    1DIPC   D2B14470  25.243   1.808   5.323  0.1910 -0.0755  0.1411
    1DIPC   D3B14471  25.145   1.447   5.456  0.0691  0.1374 -0.0107
    1DIPC   C4B14472  25.131   1.331   5.880  0.1057  0.3040 -0.0043
    1DIPC   NC314473  28.851  24.171   6.556  0.1829  0.0500  0.2313
    1DIPC   PO414474  28.886  24.302   6.136  0.2233 -0.3447  0.0660
    1DIPC   GL114475  28.755  24.485   5.793  0.2364  0.1188  0.1337
    1DIPC   GL214476  28.886  24.532   5.477 -0.2515  0.0110 -0.2539
    1DIPC   C1A14477  28.333  24.588   5.623 -0.0349 -0.0222  0.1972
    1DIPC   D2A14478  28.051  24.827   5.335  0.1517  0.0688 -0.1090
    1DIPC   D3A14479  27.784  24.571   5.003 -0.5179 -0.0419 -0.1448
    1DIPC   C4A14480  28.011  24.341   4.729 -0.0087  0.0531  0.0831
    1DIPC   C1B14481  28.997  24.947   5.364 -0.0890  0.0758 -0.0672
    1DIPC   D2B14482  29.336  25.266   5.324  0.2370 -0.2193 -0.0274
    1DIPC   D3B14483  29.358  25.360   4.911 -0.1077 -0.2967  0.1037
    1DIPC   C4B14484  29.038  25.231   4.617  0.0272  0.1169  0.2305
    1DIPC   NC314485  26.405   4.626   6.543  0.0081 -0.1706 -0.0032
    1DIPC   PO414486  25.963   4.471   6.339 -0.1869  0.1542 -0.1107
    1DIPC   GL114487  25.813   4.683   5.975  0.1390  0.1165  0.2299
    1DIPC   GL214488  26.007   4.638   5.829  0.0065  0.1997  0.1979
    1DIPC   C1A14489  25.417   4.812   5.754  0.1405  0.2308 -0.2942
    1DIPC   D2A14490  25.048   4.582   5.812 -0.0135 -0.1445  0.2422
    1DIPC   D3A14491  25.079   4.581   5.331 -0.3808  0.0257  0.0517
    1DIPC   C4A14492  24.959   4.666   4.937 -0.0437  0.0892 -0.0724
    1DIPC   C1B14493  25.916   4.829   5.508  0.1621  0.3367  0.2692
    1DIPC   D2B14494  25.571   4.797   5.202 -0.0428 -0.1591 -0.0982
    1DIPC   D3B14495  25.361   5.055   4.922 -0.1817  0.0774 -0.0574
    1DIPC   C4B14496  25.119   5.399   4.729 -0.2861 -0.1481  0.3037
    1DIPC   NC314497   4.549   3.166   6.738  0.0756  0.0721  0.0690
    1DIPC   PO414498   4.842   2.929   6.948  0.0487  0.1267 -0.0450
    1DIPC   GL114499   4.948   2.812   6.520  0.0162 -0.2074 -0.0096
    1DIPC   GL214500   4.800   2.472   6.492  0.3034  0.0788  0.2943
    1DIPC   C1A14501   4.835   2.849   6.050 -0.4588  0.3284 -0.2426
    1DIPC   D2A14502   4.466   2.777   5.669 -0.1986  0.2314  0.1831
    1DIPC   D3A14503   4.284   2.625   5.252 -0.0680 -0.0199  0.2053
    1DIPC   C4A14504   4.504   2.146   5.129  0.1860 -0.1688  0.0942
    1DIPC   C1B14505   4.631   2.402   6.055  0.3325 -0.0404  0.1721
    1DIPC   D2B14506   4.489   2.270   5.638 -0.0874  0.1656 -0.1084
    1DIPC   D3B14507   4.499   1.833   5.565 -0.0133  0.3224  0.1845
    1DIPC   C4B14508   4.223   1.563   5.759  0.0281 -0.1073  0.0565
    1DIPC   NC314509  12.571  28.234   7.220  0.0945 -0.2038  0.0678
    1DIPC   PO414510  12.737  28.576   6.901  0.0407  0.1745  0.1498
    1DIPC   GL114511  12.806  28.851   6.595 -0.0614  0.0090  0.2097
    1DIPC   GL214512  12.657  28.739   6.322  0.1805 -0.1352 -0.4400
    1DIPC   C1A14513  13.054  28.955   6.175  0.0093 -0.0085 -0.4024
    1DIPC   D2A14514  13.306  29.027   5.777  0.1544 -0.1000  0.3409
    1DIPC   D3A14515  13.451  29.383   5.649  0.0111  0.1511  0.0456
    1DIPC   C4A14516  13.280  29.701   5.550 -0.0943  0.1167  0.2842
    1DIPC   C1B14517  12.359  28.569   6.071 -0.0392 -0.3032  0.3985
    1DIPC   D2B14518  12.277  28.481   5.676 -0.3517  0.1813 -0.1694
    1DIPC   D3B14519  12.594  28.444   5.382 -0.2068 -0.1916  0.2173
    1DIPC   C4B14520  13.013  28.707   5.396  0.0945 -0.2318 -0.0183
    1DIPC   NC314521   7.937  20.866   6.017  0.0198  0.1071 -0.1100
    1DIPC   PO414522   8.228  20.485   6.077 -0.0528 -0.0552 -0.0250
    1DIPC   GL114523   8.234  20.370   5.650  0.0365  0.0354 -0.0477
    1DIPC   GL214524   8.327  20.122   5.619  0.0928 -0.1194 -0.1466
    1DIPC   C1A14525   8.262  20.497   5.183 -0.0661 -0.1783 -0.1168
    1DIPC   D2A14526   8.450  20.763   4.856  0.0744 -0.0183 -0.0613
    1DIPC   D3A14527   8.630  21.087   4.763 -0.3080  0.0387  0.2070
    1DIPC   C4A14528   8.665  21.619   4.738 -0.1622  0.2400 -0.1220
    1DIPC   C1B14529   8.663  20.293   5.432 -0.0524  0.2160 -0.1634
    1DIPC   D2B14530   8.902  20.453   5.017  0.3142 -0.2547  0.0293
    1DIPC   D3B14531   9.283  20.641   4.989  0.2767  0.0830 -0.1417
    1DIPC   C4B14532   9.608  20.527   5.069  0.0166  0.2030  0.0053
    1DIPC   NC314533  25.411  11.918   5.762  0.0309 -0.2801 -0.0307
    1DIPC   PO414534  25.752  12.101   5.613 -0.1073  0.0844 -0.0603
    1DIPC   GL114535  25.707  11.791   5.262 -0.1016 -0.1142 -0.1741
    1DIPC   GL214536  25.495  11.530   5.204 -0.2729 -0.3577 -0.1359
    1DIPC   C1A14537  25.478  11.934   4.886 -0.2181  0.1665  0.1353
    1DIPC   D2A14538  25.672  12.151   4.604 -0.1678 -0.2149  0.1852
    1DIPC   D3A14539  25.730  11.890   4.368  0.2835 -0.0447  0.0090
    1DIPC   C4A14540  26.057  11.678   4.143  0.0254  0.3859 -0.0308
    1DIPC   C1B14541  25.386  11.428   4.766 -0.0665 -0.2864  0.0677
    1DIPC   D2B14542  25.214  11.633   4.473 -0.0614 -0.1712  0.1919
    1DIPC   D3B14543  25.343  11.731   4.132 -0.2611  0.1362  0.5371
    1DIPC   C4B14544  25.103  11.523   3.808 -0.1420 -0.4559 -0.0989
    1DIPC   NC314545  24.086   6.680   7.401 -0.0502  0.0621 -0.0235
    1DIPC   PO414546  23.992   6.671   6.932 -0.2209  0.1227 -0.1362
    1DIPC   GL114547  23.613   6.400   6.757 -0.2194  0.0583 -0.0673
    1DIPC   GL214548  23.334   6.504   6.763 -0.0703  0.0589 -0.0233
    1DIPC   C1A14549  23.556   6.019   6.633 -0.0898  0.0519  0.2382
    1DIPC   D2A14550  23.774   5.888   6.274 -0.2100  0.3391 -0.2790
    1DIPC   D3A14551  23.861   5.390   6.240 -0.1381  0.1521 -0.2638
    1DIPC   C4A14552  24.039   5.079   6.570 -0.0070  0.2997 -0.0694
    1DIPC   C1B14553  23.085   6.456   6.381  0.2018 -0.2714  0.2332
    1DIPC   D2B14554  22.899   6.380   6.005  0.0067 -0.2694 -0.1573
    1DIPC   D3B14555  23.339   6.423   5.848 -0.0520 -0.2567  0.1596
    1DIPC   C4B14556  23.611   6.344   6.205 -0.1140  0.1023 -0.1073
    1DIPC   NC314557  23.164  19.860   5.940 -0.1623 -0.2502  0.0410
    1DIPC   PO414558  23.304  19.420   6.168  0.1569  0.0279 -0.1011
    1DIPC   GL114559  23.120  19.412   5.720  0.0923  0.5319  0.2323
    1DIPC   GL214560  23.207  19.711   5.453  0.2073 -0.0103 -0.0739
    1DIPC   C1A14561  22.696  19.602   5.626  0.0444  0.1327 -0.0410
    1DIPC   D2A14562  22.678  19.789   5.175 -0.0766 -0.4642 -0.0914
    1DIPC   D3A14563  22.451  19.564   4.801  0.1068 -0.2732 -0.0894
    1DIPC   C4A14564  22.707  19.427   4.374  0.3013 -0.0279  0.0910
    1DIPC   C1B14565  23.019  19.369   5.204 -0.1161 -0.2770  0.0288
    1DIPC   D2B14566  23.137  19.375   4.768  0.1013 -0.2280 -0.0223
    1DIPC   D3B14567  23.034  19.807   4.860  0.2327 -0.1562  0.2850
    1DIPC   C4B14568  22.766  19.950   4.582 -0.0292  0.1050  0.0482
    1DIPC   NC314569   4.309  17.504   5.575  0.0667  0.1722  0.1248
    1DIPC   PO414570   4.062  17.440   5.305 -0.3087 -0.0766 -0.1963
    1DIPC   GL114571   4.008  17.140   4.925 -0.1530  0.0742  0.1443
    1DIPC   GL214572   4.378  17.037   4.740 -0.1256 -0.5456  0.0744
    1DIPC   C1A14573   3.861  17.071   4.558  0.0660 -0.0788  0.4065
    1DIPC   D2A14574   3.608  16.867   4.253  0.1547  0.0367  0.0633
    1DIPC   D3A14575   3.348  16.596   4.351  0.3958 -0.0969  0.2769
    1DIPC   C4A14576   3.259  16.176   4.475  0.1823  0.0868 -0.2638
    1DIPC   C1B14577   4.366  17.019   4.280  0.1317 -0.1440  0.0338
    1DIPC   D2B14578   4.400  17.326   3.960 -0.0250 -0.1498 -0.1263
    1DIPC   D3B14579   4.215  17.661   3.964 -0.1855  0.0754  0.0306
    1DIPC   C4B14580   4.169  18.077   4.305  0.0096 -0.1179 -0.1635
    1DIPC   NC314581  25.923  14.872   5.561 -0.3674 -0.3048  0.0486
    1DIPC   PO414582  26.183  14.458   5.436 -0.1754 -0.4671 -0.0638
    1DIPC   GL114583  26.326  14.629   5.029  0.1997  0.0337 -0.2496
    1DIPC   GL214584  26.133  14.848   4.942 -0.4022 -0.1573 -0.0829
    1DIPC   C1A14585  26.652  14.847   4.710 -0.1062  0.0196  0.1888
    1DIPC   D2A14586  26.754  15.121   4.394  0.1258 -0.0538  0.1666
    1DIPC   D3A14587  26.550  15.519   4.434  0.3702  0.2545  0.2592
    1DIPC   C4A14588  26.467  15.801   4.135 -0.1638  0.0736  0.0263
    1DIPC   C1B14589  25.829  14.935   4.611 -0.4203 -0.2197 -0.1588
    1DIPC   D2B14590  25.367  14.926   4.540  0.0097 -0.1292  0.0867
    1DIPC   D3B14591  25.527  14.971   4.092 -0.1878 -0.1602  0.0161
    1DIPC   C4B14592  26.007  15.215   3.964  0.2387 -0.2088 -0.1094
    1CHOL   ROH14593  25.182   2.864   4.379 -0.1768  0.0805  0.0726
    1CHOL    R114594  25.258   2.620   4.501 -0.1085  0.0060 -0.1155
    1CHOL    R214595  25.207   2.565   4.767  0.2555 -0.0520 -0.0531
    1CHOL    R314596  25.089   2.342   4.664 -0.0018  0.0342  0.0461
    1CHOL    R414597  25.087   2.300   4.954  0.4539 -0.0779  0.0407
    1CHOL    R514598  25.166   2.164   4.804  0.1586 -0.0520 -0.1476
    1CHOL    C114599  24.906   1.937   4.967  0.3281 -0.0121  0.1883
    1CHOL    C214600  24.813   1.632   4.915  0.1071  0.1829 -0.0936
    1CHOL   ROH14601   7.959  23.660   5.280 -0.1751 -0.1167 -0.2312
    1CHOL    R114602   7.949  23.678   4.998  0.1239 -0.1537 -0.2465
    1CHOL    R214603   7.878  23.910   4.866 -0.0631 -0.2656 -0.3403
    1CHOL    R314604   8.116  23.874   4.740  0.1435  0.0695 -0.0691
    1CHOL    R414605   7.966  24.057   4.566  0.0073 -0.2629 -0.3192
    1CHOL    R514606   8.059  23.869   4.507  0.3942 -0.1447 -0.1323
    1CHOL    C114607   8.241  24.108   4.272  0.2425  0.0534 -0.0523
    1CHOL    C214608   8.109  23.989   3.954  0.1415 -0.2309 -0.0379
    1CHOL   ROH14609  12.025   4.136   4.128  0.0229 -0.0979 -0.0316
    1CHOL    R114610  12.144   4.096   4.382  0.0941 -0.0018 -0.0502
    1CHOL    R214611  12.244   4.305   4.533 -0.0770  0.0822 -0.0557
    1CHOL    R314612  12.079   4.203   4.723  0.0434 -0.0789 -0.0344
    1CHOL    R414613  12.317   4.290   4.870 -0.0574  0.2606 -0.0507
    1CHOL    R514614  12.226   4.092   4.876  0.1870  0.1411 -0.0038
    1CHOL    C114615  12.205   4.186   5.246  0.0671  0.2133 -0.0278
    1CHOL    C214616  12.108   4.445   5.560 -0.1798  0.4778 -0.2736
    1CHOL   ROH14617   9.028  15.887   6.368  0.2899  0.2058 -0.0505
    1CHOL    R114618   8.868  15.930   6.138  0.1536  0.0473  0.0139
    1CHOL    R214619   8.972  16.026   5.899 -0.0463  0.2129 -0.0056
    1CHOL    R314620   8.856  15.802   5.798  0.1873  0.0841 -0.0021
    1CHOL    R414621   8.892  15.978   5.567  0.0292  0.1097 -0.0110
    1CHOL    R514622   8.706  15.884   5.630  0.1156 -0.0763 -0.0207
    1CHOL    C114623   8.736  15.741   5.277  0.2923 -0.0714 -0.0109
    1CHOL    C214624   8.702  15.364   5.167 -0.0450  0.0191  0.0938
    1CHOL   ROH14625   4.169  25.124   5.258 -0.0294  0.0897  0.1273
    1CHOL    R114626   4.265  25.034   5.008 -0.0328  0.1072  0.1205
    1CHOL    R214627   4.234  25.180   4.775 -0.0612  0.1088  0.1292
    1CHOL    R314628   4.504  25.150   4.759 -0.0581  0.1387  0.1094
    1CHOL    R414629   4.415  25.175   4.480 -0.1018 -0.0062  0.1047
    1CHOL    R514630   4.537  25.015   4.563 -0.0671  0.0479  0.1672
    1CHOL    C114631   4.773  25.145   4.293 -0.1225 -0.0451  0.0719
    1CHOL    C214632   4.733  25.118   3.947 -0.4309 -0.0681 -0.0970
    1CHOL   ROH14633  18.424   9.897   6.097  0.0156 -0.1007 -0.0475
    1CHOL    R114634  18.459   9.700   5.897  0.0272  0.0584 -0.2067
    1CHOL    R214635  18.388   9.741   5.633  0.1755  0.3236 -0.2146
    1CHOL    R314636  18.645   9.668   5.586  0.1686  0.2557 -0.1416
    1CHOL    R414637  18.508   9.626   5.330  0.1898  0.0544 -0.1080
    1CHOL    R514638  18.628   9.479   5.439  0.1647  0.1369  0.0175
    1CHOL    C114639  18.820   9.489   5.110  0.1918 -0.1660  0.0226
    1CHOL    C214640  18.636   9.329   4.950 -0.0464  0.1457 -0.2412
    1CHOL   ROH14641   6.264   1.680   3.977  0.0017 -0.2171  0.0977
    1CHOL    R114642   6.218   1.632   4.252  0.0989 -0.1621  0.1236
    1CHOL    R214643   6.336   1.783   4.452  0.0395 -0.0166  0.0467
    1CHOL    R314644   6.078   1.816   4.533  0.0342 -0.1706  0.0980
    1CHOL    R414645   6.235   1.835   4.779  0.0967  0.1182  0.0441
    1CHOL    R514646   6.066   1.703   4.743  0.1891 -0.0446  0.1792
    1CHOL    C114647   5.935   1.896   5.045  0.1250  0.0523  0.0908
    1CHOL    C214648   6.053   2.131   5.277 -0.1260  0.1028  0.1292
    1CHOL   ROH14649   7.219   0.918   5.370  0.2145 -0.0664  0.2369
    1CHOL    R114650   7.067   1.156   5.375  0.2146 -0.0670  0.2849
    1CHOL    R214651   7.153   1.385   5.504  0.4194  0.0447 -0.0349
    1CHOL    R314652   7.109   1.499   5.261  0.0292 -0.1565 -0.0675
    1CHOL    R414653   7.088   1.721   5.453  0.2203 -0.0172 -0.2061
    1CHOL    R514654   6.940   1.664   5.303  0.0246 -0.1904  0.0449
    1CHOL    C114655   7.010   2.024   5.196 -0.2621 -0.2421 -0.3365
    1CHOL    C214656   7.246   2.357   5.261  0.1857  0.0471  0.2168
    1CHOL   ROH14657  11.262   8.584   3.983  0.1151  0.0095  0.1316
    1CHOL    R114658  11.158   8.709   4.215  0.0617  0.0645  0.0782
    1CHOL    R214659  10.951   8.600   4.362  0.0364  0.0940  0.0618
    1CHOL    R314660  11.127   8.626   4.568 -0.0087  0.1542  0.0938
    1CHOL    R414661  10.864   8.662   4.691 -0.0532 -0.0413  0.0647
    1CHOL    R514662  11.034   8.798   4.705 -0.1387  0.0634  0.1229
    1CHOL    C114663  10.979   8.723   5.075 -0.1478 -0.0635  0.0965
    1CHOL    C214664  10.858   8.567   5.468 -0.0839  0.1194 -0.1560
    1CHOL   ROH14665  11.946  15.839   3.131  0.1101 -0.1290  0.0876
    1CHOL    R114666  12.102  15.858   3.367  0.0495 -0.0736  0.1233
    1CHOL    R214667  12.237  16.088   3.438  0.0398 -0.0606  0.0988
    1CHOL    R314668  12.099  16.060   3.670 -0.0214  0.0051  0.0706
    1CHOL    R414669  12.331  16.224   3.742  0.0280 -0.0798  0.1109
    1CHOL    R514670  12.268  16.039   3.838 -0.0645 -0.0510  0.1079
    1CHOL    C114671  12.256  16.276   4.137 -0.0364 -0.0290  0.0915
    1CHOL    C214672  12.194  16.304   4.439 -0.1995  0.3449  0.3231
    1CHOL   ROH14673  20.305   8.539   6.210  0.0123  0.0275  0.1386
    1CHOL    R114674  20.271   8.437   5.948 -0.0855  0.0826  0.1285
    1CHOL    R214675  20.468   8.456   5.755 -0.1482  0.1068  0.0617
    1CHOL    R314676  20.433   8.187   5.739 -0.1742  0.1130  0.0242
    1CHOL    R414677  20.592   8.255   5.502 -0.1093  0.1143  0.0754
    1CHOL    R514678  20.404   8.144   5.505 -0.1191  0.1369  0.0159
    1CHOL    C114679  20.631   7.885   5.341 -0.1112  0.1244  0.0482
    1CHOL    C214680  20.694   7.534   5.132  0.1375  0.3066 -0.0617
    1CHOL   ROH14681   7.080  21.072   5.182  0.0530 -0.0108 -0.0924
    1CHOL    R114682   6.946  20.896   5.005  0.0093 -0.0357 -0.0351
    1CHOL    R214683   6.999  20.890   4.733 -0.0647 -0.0667 -0.0482
    1CHOL    R314684   7.040  20.625   4.780 -0.0451 -0.0603 -0.0289
    1CHOL    R414685   7.039  20.650   4.488 -0.1545 -0.0965 -0.0341
    1CHOL    R514686   6.917  20.514   4.607 -0.1098 -0.0829  0.0300
    1CHOL    C114687   7.102  20.262   4.389 -0.1885 -0.1080 -0.0078
    1CHOL    C214688   7.366  19.908   4.482  0.2443 -0.4301  0.1692
    1CHOL   ROH14689  14.361  18.303   6.324 -0.0168 -0.1057  0.0854
    1CHOL    R114690  14.353  18.166   6.076 -0.0448 -0.0994  0.0838
    1CHOL    R214691  14.197  18.249   5.865 -0.0947 -0.1158  0.1198
    1CHOL    R314692  14.432  18.241   5.729 -0.1214 -0.0812  0.0691
    1CHOL    R414693  14.229  18.301   5.525 -0.1875 -0.1638  0.1022
    1CHOL    R514694  14.376  18.139   5.519 -0.1469 -0.1320  0.0972
    1CHOL    C114695  14.469  18.325   5.199 -0.2666 -0.1593  0.0444
    1CHOL    C214696  14.443  18.341   4.815 -0.0053  0.0576 -0.0909
    1CHOL   ROH14697  18.751  20.897   5.745 -0.1206  0.0401 -0.0133
    1CHOL    R114698  18.536  20.792   5.594 -0.1335  0.0550 -0.0064
    1CHOL    R214699  18.567  20.701   5.335 -0.1605  0.1059 -0.0311
    1CHOL    R314700  18.456  20.474   5.435 -0.1302  0.0804 -0.0559
    1CHOL    R414701  18.392  20.469   5.148 -0.0634  0.0565 -0.0612
    1CHOL    R514702  18.251  20.451   5.314 -0.0946  0.0250 -0.0986
    1CHOL    C114703  18.186  20.121   5.133  0.0212  0.0037 -0.1020
    1CHOL    C214704  17.977  19.854   4.848 -0.0132  0.2169  0.1418
    1CHOL   ROH14705  11.135  16.087   2.804 -0.1876 -0.0862  0.0209
    1CHOL    R114706  11.074  16.204   3.055 -0.0585 -0.0607  0.0395
    1CHOL    R214707  10.838  16.155   3.189 -0.0603  0.0897  0.0820
    1CHOL    R314708  11.004  16.085   3.392 -0.0685 -0.0313  0.0493
    1CHOL    R414709  10.750  16.149   3.523 -0.1029 -0.1729  0.0693
    1CHOL    R514710  10.945  16.232   3.571 -0.1192 -0.1696  0.1536
    1CHOL    C114711  10.855  16.079   3.908 -0.1352 -0.4390  0.0311
    1CHOL    C214712  10.879  16.372   4.294 -0.0162 -0.2357  0.2165
    1CHOL   ROH14713  19.529  16.663   2.665 -0.0361  0.1951 -0.0110
    1CHOL    R114714  19.432  16.606   2.925  0.0368 -0.0010 -0.0248
    1CHOL    R214715  19.508  16.381   3.066  0.2688  0.0147 -0.1178
    1CHOL    R314716  19.576  16.562   3.257  0.1054  0.0099 -0.0529
    1CHOL    R414717  19.521  16.316   3.406  0.2856 -0.0809 -0.1365
    1CHOL    R514718  19.432  16.511   3.442  0.1264 -0.1621 -0.0830
    1CHOL    C114719  19.593  16.448   3.782  0.1421 -0.1414 -0.0865
    1CHOL    C214720  19.599  16.330   4.104 -0.0089  0.0179 -0.0534
    1CHOL   ROH14721   8.463  17.869   3.286  0.0153 -0.3697 -0.1096
    1CHOL    R114722   8.523  17.698   3.503  0.1774 -0.4262 -0.1983
    1CHOL    R214723   8.751  17.543   3.511  0.4925  0.0250 -0.1398
    1CHOL    R314724   8.790  17.667   3.750  0.0415 -0.0835 -0.0000
    1CHOL    R414725   8.946  17.419   3.769  0.5558  0.2113 -0.0959
    1CHOL    R514726   8.794  17.489   3.910  0.2866 -0.2198 -0.1486
    1CHOL    C114727   9.095  17.464   4.143  0.1694  0.2180  0.0610
    1CHOL    C214728   9.438  17.551   4.071  0.0407 -0.0488  0.1541
    1CHOL   ROH14729  11.999   2.469   4.302 -0.0526  0.2264 -0.1271
    1CHOL    R114730  11.897   2.402   4.557  0.0380  0.1418 -0.1127
    1CHOL    R214731  12.051   2.415   4.786  0.1184  0.0676 -0.1627
    1CHOL    R314732  11.848   2.573   4.875  0.1485  0.0367 -0.0382
    1CHOL    R414733  11.989   2.484   5.119  0.1393 -0.1749 -0.1063
    1CHOL    R514734  11.775   2.465   5.077  0.1340 -0.1050 -0.1175
    1CHOL    C114735  11.762   2.673   5.396  0.1796 -0.3451  0.0433
    1CHOL    C214736  12.094   2.428   5.631  0.1951  0.0963 -0.0280
    1CHOL   ROH14737  12.656  16.667   2.974 -0.0294 -0.2929 -0.0440
    1CHOL    R114738  12.427  16.698   3.137 -0.0162 -0.1008 -0.0601
    1CHOL    R214739  12.404  16.577   3.385 -0.0815  0.0239 -0.0073
    1CHOL    R314740  12.355  16.831   3.468  0.0452  0.0876 -0.1202
    1CHOL    R414741  12.252  16.660   3.684 -0.1291  0.2250 -0.0853
    1CHOL    R514742  12.143  16.817   3.579 -0.0022  0.2547 -0.1820
    1CHOL    C114743  12.118  16.947   3.937 -0.0377  0.4018 -0.2367
    1CHOL    C214744  12.223  16.827   4.334  0.0198  0.0484 -0.2919
    1CHOL   ROH14745   5.413  28.341   3.872  0.0831 -0.1401 -0.3300
    1CHOL    R114746   5.628  28.322   4.055  0.0313 -0.1957 -0.2767
    1CHOL    R214747   5.634  28.462   4.293  0.1020 -0.0364 -0.3762
    1CHOL    R314748   5.672  28.215   4.401 -0.1232  0.0034 -0.1925
    1CHOL    R414749   5.757  28.402   4.611  0.4811  0.0957 -0.4903
    1CHOL    R514750   5.874  28.237   4.529  0.1109 -0.1728 -0.5110
    1CHOL    C114751   5.864  28.135   4.897  0.4906  0.2100 -0.3845
    1CHOL    C214752   6.148  28.284   5.214  0.1699 -0.1479 -0.2162
    1CHOL   ROH14753  14.319   9.201   3.590 -0.1946  0.0972  0.0472
    1CHOL    R114754  14.434   9.171   3.847 -0.0349  0.0371 -0.0286
    1CHOL    R214755  14.536   9.385   3.990  0.0417  0.0110 -0.0297
    1CHOL    R314756  14.367   9.294   4.183  0.1592 -0.0518  0.0422
    1CHOL    R414757  14.561   9.461   4.326  0.2685 -0.1530 -0.0089
    1CHOL    R514758  14.509   9.254   4.371  0.2713 -0.1597 -0.0699
    1CHOL    C114759  14.418   9.420   4.703  0.5108 -0.3075  0.0707
    1CHOL    C214760  14.632   9.564   4.906  0.0613 -0.1011  0.0491
    1CHOL   ROH14761   4.549  16.435   2.157 -0.3129  0.0825  0.0792
    1CHOL    R114762   4.643  16.472   2.421 -0.1313 -0.0052  0.0269
    1CHOL    R214763   4.478  16.552   2.628  0.0208 -0.0478  0.1547
    1CHOL    R314764   4.574  16.329   2.749  0.0764 -0.0893  0.0389
    1CHOL    R414765   4.474  16.495   2.968  0.0973 -0.1702  0.1367
    1CHOL    R514766   4.673  16.409   2.951  0.1149 -0.1449  0.0527
    1CHOL    C114767   4.561  16.252   3.280  0.1940 -0.2804  0.0176
    1CHOL    C214768   4.633  16.452   3.581 -0.1718 -0.2306 -0.1200
    1CHOL   ROH14769  12.132  17.591   2.977  0.1935 -0.0865 -0.0576
    1CHOL    R114770  12.340  17.638   3.163  0.1163 -0.1995  0.0591
    1CHOL    R214771  12.341  17.855   3.333  0.2242 -0.1017 -0.0637
    1CHOL    R314772  12.370  17.664   3.524 -0.1071 -0.0278  0.0675
    1CHOL    R414773  12.503  17.901   3.635  0.3873 -0.1974 -0.1354
    1CHOL    R514774  12.590  17.702   3.613 -0.0048 -0.3908 -0.0141
    1CHOL    C114775  12.625  17.748   3.990  0.1713 -0.1840 -0.0541
    1CHOL    C214776  12.877  17.791   4.351 -0.1311  0.1294 -0.0356
    1CHOL   ROH14777  18.815  14.563   6.231 -0.4095  0.0382  0.0990
    1CHOL    R114778  18.697  14.452   5.999 -0.3434  0.2929 -0.0612
    1CHOL    R214779  18.619  14.606   5.782  0.1662  0.4843 -0.1249
    1CHOL    R314780  18.778  14.434   5.644  0.0333  0.2372  0.0235
    1CHOL    R414781  18.619  14.568   5.439  0.3097  0.3643 -0.1122
    1CHOL    R514782  18.639  14.354   5.467  0.0299  0.3458 -0.0233
    1CHOL    C114783  18.768  14.385   5.109  0.2682  0.0623  0.0346
    1CHOL    C214784  18.550  14.282   4.863  0.3365  0.1171  0.1085
    1CHOL   ROH14785  24.594  18.060   2.421 -0.0599  0.1192 -0.1082
    1CHOL    R114786  24.694  17.895   2.629  0.0425  0.1453 -0.1342
    1CHOL    R214787  24.844  17.994   2.839  0.0202  0.1986 -0.1338
    1CHOL    R314788  24.654  17.871   2.990  0.0888  0.0938 -0.1344
    1CHOL    R414789  24.901  17.841   3.144  0.0984  0.1952 -0.1512
    1CHOL    R514790  24.765  17.681   3.084  0.1760  0.1410 -0.1557
    1CHOL    C114791  24.756  17.636   3.462  0.2087  0.0950 -0.1619
    1CHOL    C214792  24.713  17.479   3.735 -0.1543 -0.0755  0.0117
    1CHOL   ROH14793   9.210  29.597   6.523  0.0441  0.0661  0.0470
    1CHOL    R114794   9.046  29.741   6.342  0.0551 -0.0149 -0.0280
    1CHOL    R214795   9.148  29.879   6.126  0.1040  0.1726  0.1112
    1CHOL    R314796   8.971  29.728   5.986  0.3600  0.0577 -0.0973
    1CHOL    R414797   8.963  29.991   5.857  0.1328  0.1361  0.0764
    1CHOL    R514798   8.792  29.879   5.934  0.2141 -0.1143 -0.1004
    1CHOL    C114799   8.688  29.915   5.568  0.3897  0.0073 -0.1396
    1CHOL    C214800   8.718  30.022   5.139  0.2098 -0.2760 -0.2216
    1CHOL   ROH14801  17.684  14.922   2.963  0.0486  0.1043  0.0578
    1CHOL    R114802  17.644  15.053   3.211  0.2220  0.1656  0.0547
    1CHOL    R214803  17.491  14.944   3.414 -0.0332  0.4288  0.0108
    1CHOL    R314804  17.716  14.983   3.561  0.0081  0.0102  0.0696
    1CHOL    R414805  17.503  14.951   3.760 -0.1339  0.5235  0.0127
    1CHOL    R514806  17.645  15.116   3.746  0.2215  0.2303 -0.0015
    1CHOL    C114807  17.722  14.992   4.099 -0.1536  0.1857  0.0690
    1CHOL    C214808  17.676  15.225   4.312 -0.2321 -0.0522 -0.0536
    1CHOL   ROH14809  13.473   5.746   6.818 -0.0327  0.0250 -0.0026
    1CHOL    R114810  13.578   5.799   6.561 -0.0804  0.0032 -0.0254
    1CHOL    R214811  13.423   5.792   6.332 -0.1595  0.1658  0.0314
    1CHOL    R314812  13.522   6.043   6.297  0.0134  0.1022  0.0421
    1CHOL    R414813  13.419   5.966   6.033 -0.3345  0.2863  0.1012
    1CHOL    R514814  13.620   6.039   6.079 -0.2154  0.1035 -0.0711
    1CHOL    C114815  13.510   6.303   5.827 -0.2740  0.2967  0.1518
    1CHOL    C214816  13.154   6.153   5.621  0.0501  0.1181 -0.2024
    1CHOL   ROH14817  12.727  29.243   4.178 -0.0258 -0.2703  0.0954
    1CHOL    R114818  12.587  29.048   4.327 -0.1901 -0.1256  0.1344
    1CHOL    R214819  12.592  29.039   4.603 -0.1494 -0.1096  0.1344
    1CHOL    R314820  12.321  29.044   4.575 -0.1518  0.1498  0.1824
    1CHOL    R414821  12.366  28.987   4.860 -0.1482 -0.2732  0.1038
    1CHOL    R514822  12.243  28.871   4.722 -0.2680  0.0113 -0.0373
    1CHOL    C114823  11.981  28.962   4.984 -0.1498 -0.1252  0.1309
    1CHOL    C214824  11.902  28.698   5.216  0.2720 -0.2649 -0.0597
    1CHOL   ROH14825  15.406  18.503   6.171 -0.2085 -0.1283 -0.0421
    1CHOL    R114826  15.306  18.440   5.913 -0.1459  0.0778 -0.1182
    1CHOL    R214827  15.309  18.621   5.705  0.3406  0.0937 -0.1051
    1CHOL    R314828  15.439  18.421   5.575  0.0611 -0.1450 -0.0271
    1CHOL    R414829  15.364  18.609   5.364  0.7136  0.1236 -0.0508
    1CHOL    R514830  15.320  18.395   5.369  0.2369  0.2037 -0.1826
    1CHOL    C114831  15.518  18.413   5.044  0.6686 -0.0829  0.0541
    1CHOL    C214832  15.218  18.442   4.869  0.0944 -0.1633 -0.0089
    1CHOL   ROH14833  13.007  25.373   3.903  0.1301 -0.3271  0.1297
    1CHOL    R114834  13.039  25.504   4.152  0.1123 -0.1388  0.0350
    1CHOL    R214835  13.047  25.779   4.177 -0.1342 -0.1148 -0.1436
    1CHOL    R314836  12.846  25.736   4.355 -0.0214 -0.1883 -0.0329
    1CHOL    R414837  12.875  26.027   4.346 -0.0711 -0.1789  0.0171
    1CHOL    R514838  12.880  25.902   4.524  0.0553 -0.2216 -0.0131
    1CHOL    C114839  12.588  26.131   4.612  0.0716 -0.2855  0.2145
    1CHOL    C214840  12.568  26.056   4.968  0.1434  0.0066 -0.5823
    1CHOL   ROH14841  18.125  28.643   3.793  0.1438  0.1586 -0.1796
    1CHOL    R114842  18.289  28.526   3.991  0.1152  0.1032 -0.1866
    1CHOL    R214843  18.225  28.532   4.260  0.1737  0.2039 -0.1665
    1CHOL    R314844  18.255  28.262   4.240  0.0006  0.1810 -0.1222
    1CHOL    R414845  18.265  28.317   4.528  0.2420  0.2356 -0.1525
    1CHOL    R514846  18.413  28.208   4.412  0.0886  0.1233 -0.2293
    1CHOL    C114847  18.318  27.939   4.665  0.1195  0.2326 -0.1026
    1CHOL    C214848  18.191  27.931   5.046  0.1112 -0.0914  0.0698
    1CHOL   ROH14849   9.753  23.679   3.146 -0.1672  0.3803 -0.1694
    1CHOL    R114850   9.907  23.896   3.242 -0.0611  0.2654 -0.0772
    1CHOL    R214851   9.886  23.991   3.500 -0.0735  0.2183 -0.0621
    1CHOL    R314852  10.154  23.949   3.504 -0.0985  0.0565  0.0031
    1CHOL    R414853  10.101  24.112   3.742 -0.0257  0.3331 -0.1609
    1CHOL    R514854  10.246  24.155   3.584  0.0183  0.0868 -0.1957
    1CHOL    C114855  10.479  24.142   3.886 -0.0212  0.2479 -0.1573
    1CHOL    C214856  10.422  24.366   4.214 -0.0069 -0.2697  0.3234
    1CHOL   ROH14857   5.037  20.323   4.636 -0.3408 -0.1957 -0.0933
    1CHOL    R114858   5.095  20.433   4.381 -0.1324 -0.1491 -0.0272
    1CHOL    R214859   4.898  20.486   4.194  0.0073  0.0004 -0.1310
    1CHOL    R314860   5.007  20.735   4.198  0.1267 -0.0521  0.0037
    1CHOL    R414861   4.769  20.761   4.029  0.0993  0.1656  0.0656
    1CHOL    R514862   4.973  20.819   3.977  0.1185  0.1022  0.0599
    1CHOL    C114863   4.796  21.154   3.936  0.2650  0.2127  0.3066
    1CHOL    C214864   4.583  21.247   3.583 -0.2028  0.2751  0.1910
    1CHOL   ROH14865  28.264  12.987   3.648 -0.1010 -0.0527  0.0400
    1CHOL    R114866  28.317  12.741   3.777 -0.1929 -0.1369 -0.0825
    1CHOL    R214867  28.261  12.497   3.660  0.0670 -0.0631 -0.3657
    1CHOL    R314868  28.524  12.448   3.713  0.0156 -0.0062 -0.0259
    1CHOL    R414869  28.392  12.188   3.743  0.0813 -0.1358 -0.6466
    1CHOL    R514870  28.520  12.287   3.890 -0.1937 -0.2925 -0.2768
    1CHOL    C114871  28.714  11.962   3.840  0.0415 -0.1246 -0.4912
    1CHOL    C214872  28.361  11.680   3.888 -0.0276 -0.4735 -0.4810
    1CHOL   ROH14873  24.057  18.942   2.543 -0.0993  0.0377  0.0337
    1CHOL    R114874  24.049  18.852   2.811 -0.0684  0.0470  0.0367
    1CHOL    R214875  24.267  18.736   2.935 -0.0734  0.0040 -0.0040
    1CHOL    R314876  24.224  18.929   3.121  0.0060  0.0157  0.0042
    1CHOL    R414877  24.362  18.716   3.267  0.2306  0.0916 -0.0813
    1CHOL    R514878  24.172  18.809   3.322  0.2330  0.0196  0.0712
    1CHOL    C114879  24.376  18.886   3.635  0.4821  0.1537 -0.1186
    1CHOL    C214880  24.674  18.918   3.874 -0.3479 -0.2564  0.1167
    1CHOL   ROH14881  13.944  14.236   2.948  0.0259 -0.2258 -0.0434
    1CHOL    R114882  14.051  14.393   3.158  0.0806 -0.2535 -0.0493
    1CHOL    R214883  13.897  14.485   3.368  0.0735 -0.0489 -0.1389
    1CHOL    R314884  14.087  14.363   3.519 -0.0955 -0.1744 -0.0239
    1CHOL    R414885  13.970  14.566   3.696  0.1102  0.0890 -0.1814
    1CHOL    R514886  14.182  14.541   3.649  0.0916 -0.1943 -0.1292
    1CHOL    C114887  14.192  14.499   4.028 -0.0269  0.0514 -0.0982
    1CHOL    C214888  14.115  14.884   4.097  0.0282  0.6824  0.1810
    1CHOL   ROH14889  15.767  10.084   6.468  0.0949 -0.0653  0.1089
    1CHOL    R114890  15.596  10.079   6.243  0.0896 -0.1080  0.1147
    1CHOL    R214891  15.615  10.262   6.037 -0.0173 -0.0516  0.1571
    1CHOL    R314892  15.633  10.038   5.884  0.0974 -0.0071  0.1030
    1CHOL    R414893  15.535  10.244   5.701  0.2388  0.0520  0.0871
    1CHOL    R514894  15.444  10.050   5.738  0.2064  0.0398 -0.0396
    1CHOL    C114895  15.504  10.024   5.362  0.4955  0.1541 -0.0044
    1CHOL    C214896  15.616  10.156   5.155 -0.0150 -0.2003  0.0730
    1CHOL   ROH14897  11.183  15.171   3.149 -0.3487  0.1374 -0.0579
    1CHOL    R114898  11.051  15.176   3.400 -0.2625  0.1198 -0.0111
    1CHOL    R214899  11.068  14.967   3.581 -0.1442  0.1346  0.0004
    1CHOL    R314900  11.150  15.164   3.750 -0.1349  0.1691 -0.0453
    1CHOL    R414901  10.983  14.987   3.915  0.1515  0.0173  0.0852
    1CHOL    R514902  10.960  15.203   3.891 -0.0343  0.0032  0.1387
    1CHOL    C114903  11.010  15.183   4.269  0.3324 -0.0189  0.0917
    1CHOL    C214904  10.998  15.288   4.578  0.4085  0.3203  0.1302
    1CHOL   ROH14905   4.967  13.120   4.050 -0.3984  0.1724 -0.1750
    1CHOL    R114906   5.100  13.296   4.227 -0.3955 -0.2063  0.2134
    1CHOL    R214907   5.103  13.570   4.191  0.3901 -0.1917  0.2684
    1CHOL    R314908   5.007  13.573   4.445 -0.2685 -0.0200  0.0395
    1CHOL    R414909   5.054  13.855   4.381  0.6332 -0.0923  0.1867
    1CHOL    R514910   5.131  13.746   4.554 -0.0748 -0.3501  0.3858
    1CHOL    C114911   4.936  14.023   4.730  0.1565  0.1267 -0.0757
    1CHOL    C214912   4.570  14.200   4.851 -0.2014  0.1170  0.1050
    1CHOL   ROH14913  20.194  19.743   2.826 -0.1022 -0.0544 -0.0181
    1CHOL    R114914  20.071  19.667   3.069 -0.2331  0.0735 -0.0436
    1CHOL    R214915  20.197  19.693   3.314 -0.1979 -0.1882 -0.0364
    1CHOL    R314916  19.972  19.832   3.379  0.0116  0.1511 -0.0026
    1CHOL    R414917  20.109  19.788   3.635 -0.1189 -0.2744  0.0120
    1CHOL    R514918  19.903  19.737   3.587 -0.2048  0.1074 -0.0872
    1CHOL    C114919  19.847  19.973   3.882  0.1236 -0.0057  0.0719
    1CHOL    C214920  19.622  20.055   4.145 -0.2811  0.2651 -0.2961
    1CHOL   ROH14921  15.833  21.059   6.474 -0.0121 -0.1801 -0.0863
    1CHOL    R114922  15.816  21.140   6.203 -0.0208 -0.1528 -0.0776
    1CHOL    R214923  15.989  21.046   6.009  0.0109 -0.0859 -0.0805
    1CHOL    R314924  15.758  20.978   5.882  0.0343 -0.1294 -0.0998
    1CHOL    R414925  15.960  20.986   5.670  0.0982 -0.3015 -0.0512
    1CHOL    R514926  15.770  21.092   5.672  0.1133 -0.2665 -0.1725
    1CHOL    C114927  15.726  20.887   5.354  0.1709 -0.4678 -0.0522
    1CHOL    C214928  15.618  20.866   4.959 -0.0040 -0.0216  0.1588
    1CHOL   ROH14929  15.275  10.632   3.019  0.3090 -0.0178 -0.1072
    1CHOL    R114930  15.280  10.583   3.297  0.1242 -0.0179 -0.1020
    1CHOL    R214931  15.480  10.436   3.418  0.0337 -0.0376  0.0292
    1CHOL    R314932  15.504  10.657   3.575 -0.0463 -0.0385  0.0424
    1CHOL    R414933  15.636  10.444   3.727 -0.0758 -0.0242  0.0844
    1CHOL    R514934  15.477  10.575   3.798 -0.1150 -0.0447  0.0311
    1CHOL    C114935  15.749  10.657   4.053 -0.2147 -0.0172  0.1290
    1CHOL    C214936  15.910  10.612   4.375  0.0038 -0.0684  0.2332
    1CHOL   ROH14937  10.356  14.505   3.170 -0.1535 -0.3728 -0.0055
    1CHOL    R114938  10.311  14.373   3.416 -0.0872 -0.2865  0.0536
    1CHOL    R214939  10.438  14.447   3.650 -0.0355 -0.1929 -0.0017
    1CHOL    R314940  10.183  14.463   3.745 -0.0151 -0.1740  0.0506
    1CHOL    R414941  10.350  14.430   3.984  0.0290 -0.1607  0.0171
    1CHOL    R514942  10.178  14.309   3.927  0.0134 -0.1568  0.0639
    1CHOL    C114943  10.060  14.436   4.267  0.0856 -0.1241  0.0771
    1CHOL    C214944   9.871  14.365   4.576  0.1512  0.0939  0.0432
    1CHOL   ROH14945   7.223  28.413   6.242 -0.1861  0.2571  0.1053
    1CHOL    R114946   7.209  28.450   5.961 -0.3352  0.2017  0.1042
    1CHOL    R214947   7.142  28.693   5.847 -0.1950  0.2364  0.0910
    1CHOL    R314948   7.376  28.658   5.714 -0.3091 -0.0052 -0.0538
    1CHOL    R414949   7.216  28.829   5.538 -0.1483  0.3789  0.1643
    1CHOL    R514950   7.312  28.641   5.484 -0.4518  0.2755 -0.0376
    1CHOL    C114951   7.479  28.876   5.233 -0.2282  0.2352  0.0711
    1CHOL    C214952   7.704  29.002   5.041 -0.0421 -0.1123  0.0348
    1CHOL   ROH14953  18.230  12.956   5.980  0.3255 -0.0825 -0.0668
    1CHOL    R114954  18.259  12.818   5.735 -0.0505 -0.1776 -0.0649
    1CHOL    R214955  18.045  12.711   5.597 -0.3334  0.2486  0.0267
    1CHOL    R314956  18.143  12.861   5.392 -0.0948  0.0270 -0.0259
    1CHOL    R414957  17.989  12.649   5.262 -0.4390  0.2247  0.0481
    1CHOL    R514958  18.197  12.701   5.222 -0.3508 -0.1191  0.0258
    1CHOL    C114959  18.049  12.753   4.874 -0.2765  0.0029  0.0112
    1CHOL    C214960  18.089  12.909   4.513 -0.1774  0.0923  0.0080
    1CHOL   ROH14961   8.881  13.505   2.927  0.0637 -0.1677 -0.0995
    1CHOL    R114962   8.933  13.638   3.171  0.1679 -0.1070 -0.1555
    1CHOL    R214963   8.735  13.695   3.355  0.2210  0.1115 -0.1708
    1CHOL    R314964   8.900  13.562   3.526  0.1271  0.0661 -0.1219
    1CHOL    R414965   8.727  13.722   3.700  0.0229  0.0010 -0.1649
    1CHOL    R514966   8.944  13.719   3.700  0.0204  0.0106 -0.0438
    1CHOL    C114967   8.876  13.613   4.060 -0.1804 -0.1060 -0.1154
    1CHOL    C214968   8.848  13.387   4.316 -0.2222  0.0784 -0.1588
    1CHOL   ROH14969  15.057   6.969   3.826  0.1928  0.1689 -0.1624
    1CHOL    R114970  15.172   7.133   4.026  0.1145  0.0101  0.0153
    1CHOL    R214971  15.056   7.167   4.275  0.0460 -0.2341  0.0209
    1CHOL    R314972  15.300   7.086   4.364  0.0379 -0.2725  0.0078
    1CHOL    R414973  15.176   7.218   4.595  0.2330  0.1082 -0.0998
    1CHOL    R514974  15.372   7.263   4.509  0.2210 -0.1261 -0.2548
    1CHOL    C114975  15.476   7.173   4.865  0.3344  0.2714 -0.1825
    1CHOL    C214976  15.839   7.230   5.029  0.0778 -0.1275  0.2393
    1CHOL   ROH14977  16.166  17.485   2.747 -0.1856 -0.0517  0.1446
    1CHOL    R114978  16.095  17.472   3.021 -0.0589 -0.1159  0.1748
    1CHOL    R214979  16.234  17.318   3.203  0.1854  0.0433  0.1253
    1CHOL    R314980  16.252  17.552   3.339 -0.0139  0.0717  0.1068
    1CHOL    R414981  16.339  17.348   3.531  0.3586  0.1735  0.0594
    1CHOL    R514982  16.183  17.498   3.562  0.1918 -0.0121  0.1539
    1CHOL    C114983  16.418  17.586   3.849  0.2722  0.2760  0.0037
    1CHOL    C214984  16.412  17.456   4.224 -0.0278 -0.2275 -0.1143
    1CHOL   ROH14985  21.242  12.871   5.935  0.2043 -0.0490 -0.1059
    1CHOL    R114986  21.225  12.944   5.662  0.0872 -0.1069 -0.1148
    1CHOL    R214987  21.443  12.938   5.493  0.0489  0.0067 -0.1697
    1CHOL    R314988  21.281  12.782   5.342  0.1119 -0.1265 -0.1005
    1CHOL    R414989  21.500  12.857   5.162  0.0243 -0.0246 -0.1659
    1CHOL    R514990  21.287  12.882   5.124 -0.0010 -0.1662 -0.1225
    1CHOL    C114991  21.380  12.662   4.827  0.0692 -0.1678 -0.0988
    1CHOL    C214992  21.170  12.660   4.486 -0.0032 -0.0523  0.1340
    1CHOL   ROH14993  18.263  12.715   2.633  0.2341 -0.1582  0.0055
    1CHOL    R114994  18.375  12.744   2.891  0.1729 -0.2515  0.0431
    1CHOL    R214995  18.262  12.905   3.085  0.3035 -0.0627 -0.0364
    1CHOL    R314996  18.272  12.678   3.234 -0.0503 -0.0486  0.0190
    1CHOL    R414997  18.254  12.895   3.431  0.2400  0.0328 -0.0343
    1CHOL    R514998  18.405  12.737   3.424  0.0152 -0.1950  0.0227
    1CHOL    C114999  18.260  12.675   3.772 -0.1288  0.1015  0.0188
    1CHOL    C215000  18.471  12.680   4.090  0.2347  0.1797  0.0856
    1CHOL   ROH15001  23.135  15.847   5.439  0.1288 -0.1750  0.0827
    1CHOL    R115002  23.121  15.729   5.182  0.2689 -0.1352  0.0564
    1CHOL    R215003  23.014  15.861   4.964  0.1095 -0.2122  0.0882
    1CHOL    R315004  23.254  15.801   4.851  0.1841  0.0998  0.0707
    1CHOL    R415005  23.069  15.821   4.625  0.1372 -0.1324  0.0828
    1CHOL    R515006  23.200  15.653   4.670  0.3605  0.0314  0.0701
    1CHOL    C115007  23.326  15.742   4.322  0.2232  0.2072  0.0632
    1CHOL    C215008  23.599  15.654   3.993  0.0273 -0.2690  0.1889
    1CHOL   ROH15009  25.038  11.278   4.206 -0.0639  0.0341  0.1899
    1CHOL    R115010  25.293  11.165   4.255 -0.0490  0.0266  0.0901
    1CHOL    R215011  25.517  11.236   4.110 -0.0801  0.1262  0.1022
    1CHOL    R315012  25.621  11.286   4.357 -0.0417 -0.0089  0.1156
    1CHOL    R415013  25.851  11.206   4.194 -0.0726  0.0171  0.0382
    1CHOL    R515014  25.791  11.120   4.385 -0.0694 -0.0633  0.0115
    1CHOL    C115015  26.143  11.236   4.474 -0.0318 -0.1733  0.0135
    1CHOL    C215016  26.493  11.294   4.267 -0.0950 -0.2881 -0.0332
    1CHOL   ROH15017  18.784   5.625   6.651  0.0427  0.1309  0.1131
    1CHOL    R115018  18.647   5.689   6.411  0.0760  0.0350  0.0686
    1CHOL    R215019  18.764   5.834   6.207  0.0625  0.0594  0.0814
    1CHOL    R315020  18.689   5.620   6.056  0.1991  0.0055  0.0879
    1CHOL    R415021  18.654   5.852   5.880 -0.0400 -0.0074  0.1110
    1CHOL    R515022  18.504   5.700   5.927  0.0957 -0.1370  0.1421
    1CHOL    C115023  18.520   5.662   5.548  0.0286 -0.0970  0.1343
    1CHOL    C215024  18.611   5.439   5.259  0.2316 -0.1907  0.1518
    1CHOL   ROH15025  16.608  14.825   4.404 -0.1198  0.0752 -0.1123
    1CHOL    R115026  16.877  14.838   4.317 -0.1314 -0.0473 -0.1690
    1CHOL    R215027  17.086  14.898   4.488 -0.0942  0.0799 -0.2571
    1CHOL    R315028  17.188  14.664   4.393 -0.1468 -0.0266 -0.0575
    1CHOL    R415029  17.422  14.816   4.484 -0.0998  0.0594 -0.3150
    1CHOL    R515030  17.393  14.728   4.286 -0.1882 -0.1468 -0.2126
    1CHOL    C115031  17.713  14.550   4.392 -0.1525 -0.0526 -0.1613
    1CHOL    C215032  18.051  14.646   4.336 -0.1803  0.0401 -0.0732
    1CHOL   ROH15033  11.746  12.547   6.913  0.0089  0.1551 -0.1976
    1CHOL    R115034  11.754  12.315   6.752  0.2402  0.0976 -0.1069
    1CHOL    R215035  11.553  12.251   6.573  0.2214 -0.2573  0.0346
    1CHOL    R315036  11.759  12.241   6.396  0.1356 -0.0396 -0.0807
    1CHOL    R415037  11.523  12.161   6.241  0.0996 -0.0931 -0.0001
    1CHOL    R515038  11.710  12.051   6.259  0.1756  0.0055 -0.1590
    1CHOL    C115039  11.698  12.099   5.881 -0.0519  0.2069 -0.1286
    1CHOL    C215040  11.444  11.883   5.540  0.2227 -0.3151 -0.0149
    1CHOL   ROH15041   8.141  22.694   4.254 -0.3026 -0.0885 -0.0569
    1CHOL    R115042   8.189  22.430   4.346 -0.3696 -0.0714  0.0272
    1CHOL    R215043   8.103  22.207   4.207 -0.0631 -0.1007 -0.1226
    1CHOL    R315044   8.364  22.135   4.223 -0.0590 -0.0163  0.3236
    1CHOL    R415045   8.222  21.884   4.174  0.1119 -0.0401 -0.0931
    1CHOL    R515046   8.362  21.924   4.336 -0.1989 -0.0841  0.1982
    1CHOL    C115047   8.538  21.629   4.169  0.2176  0.0741  0.3430
    1CHOL    C215048   8.405  21.365   4.438 -0.0180  0.1852  0.1126
    1CHOL   ROH15049  11.489  21.110   2.912 -0.1934  0.0062 -0.0789
    1CHOL    R115050  11.334  21.062   3.144 -0.2040  0.1953 -0.0448
    1CHOL    R215051  11.442  20.962   3.378 -0.2923 -0.0633 -0.1095
    1CHOL    R315052  11.327  21.182   3.487  0.1113  0.1050 -0.0039
    1CHOL    R415053  11.332  20.986   3.704 -0.1156  0.0405 -0.0563
    1CHOL    R515054  11.158  21.095   3.633  0.0273  0.3451  0.0458
    1CHOL    C115055  11.160  21.207   3.997  0.3663  0.2592  0.0738
    1CHOL    C215056  10.987  21.061   4.216  0.0733 -0.0684  0.2139
    1CHOL   ROH15057  24.402  17.486   2.587  0.0714 -0.1666 -0.1036
    1CHOL    R115058  24.420  17.479   2.869 -0.0623 -0.0684 -0.0921
    1CHOL    R215059  24.221  17.372   3.028  0.0056 -0.3133 -0.1704
    1CHOL    R315060  24.425  17.223   3.127  0.1731  0.0000 -0.0248
    1CHOL    R415061  24.243  17.258   3.354 -0.1087 -0.3597 -0.1783
    1CHOL    R515062  24.456  17.304   3.350 -0.1706  0.0012  0.0299
    1CHOL    C115063  24.447  17.051   3.636 -0.0182 -0.0926 -0.0462
    1CHOL    C215064  24.811  17.056   3.917 -0.1982 -0.2639 -0.1124
    1CHOL   ROH15065  11.551   8.768   7.022  0.1094  0.0210 -0.0256
    1CHOL    R115066  11.629   8.926   6.801 -0.0867  0.0844 -0.0503
    1CHOL    R215067  11.789   8.827   6.597 -0.0082  0.2357 -0.0539
    1CHOL    R315068  11.585   8.914   6.439 -0.1184  0.0053 -0.0463
    1CHOL    R415069  11.765   8.771   6.257  0.3130  0.6107 -0.1462
    1CHOL    R515070  11.692   8.975   6.234 -0.1181  0.5032  0.0815
    1CHOL    C115071  11.561   8.820   5.911  0.3968  0.6129 -0.1929
    1CHOL    C215072  11.745   8.511   5.817 -0.0897 -0.1247  0.0789
    1CHOL   ROH15073  11.294  17.999   2.566  0.2823 -0.2055  0.0997
    1CHOL    R115074  11.376  17.963   2.835  0.1389 -0.3086  0.1306
    1CHOL    R215075  11.342  18.158   3.027  0.4437 -0.2031  0.0810
    1CHOL    R315076  11.216  17.958   3.161  0.0269  0.0512  0.0868
    1CHOL    R415077  11.370  18.099   3.367  0.2187 -0.1740  0.1067
    1CHOL    R515078  11.376  17.885   3.324 -0.1552 -0.2031  0.1613
    1CHOL    C115079  11.269  17.877   3.690 -0.3038  0.0822  0.1271
    1CHOL    C215080  11.145  18.047   4.037 -0.4173 -0.3421  0.0129
    1CHOL   ROH15081  15.872   8.212   6.463  0.1779 -0.2243 -0.1484
    1CHOL    R115082  15.845   8.379   6.236 -0.0355 -0.1965 -0.1046
    1CHOL    R215083  16.020   8.369   6.023 -0.0617  0.0352 -0.1394
    1CHOL    R315084  15.792   8.333   5.879 -0.0520 -0.1668 -0.1060
    1CHOL    R415085  15.966   8.489   5.703 -0.2691  0.1194 -0.0747
    1CHOL    R515086  15.762   8.539   5.761 -0.3181 -0.1446 -0.0077
    1CHOL    C115087  15.721   8.525   5.382 -0.3807 -0.0212 -0.0057
    1CHOL    C215088  15.699   8.667   4.989 -0.0451 -0.1905  0.0720
    1CHOL   ROH15089  13.049  14.648   2.843  0.0704 -0.3105  0.0009
    1CHOL    R115090  13.124  14.798   3.071  0.1043 -0.2222 -0.0671
    1CHOL    R215091  12.941  14.879   3.262  0.0892  0.0688 -0.1959
    1CHOL    R315092  13.112  14.755   3.432 -0.0934  0.0270 -0.0417
    1CHOL    R415093  12.940  14.919   3.605  0.0264  0.3463 -0.2259
    1CHOL    R515094  13.158  14.919   3.601  0.0276  0.1137 -0.1613
    1CHOL    C115095  13.099  14.824   3.965 -0.1817  0.4687 -0.0985
    1CHOL    C215096  13.199  15.105   4.279  0.0024 -0.2788 -0.2186
    1CHOL   ROH15097   0.727  14.487   4.888 -0.0873 -0.1564  0.2067
    1CHOL    R115098   0.640  14.311   4.684 -0.0326  0.0088  0.0374
    1CHOL    R215099   0.713  14.343   4.419  0.1712  0.1332  0.1037
    1CHOL    R315100   0.797  14.086   4.445  0.0246  0.0756  0.0123
    1CHOL    R415101   0.750  14.120   4.158  0.1151  0.2261  0.0162
    1CHOL    R515102   0.667  13.964   4.285 -0.0010  0.2157 -0.0735
    1CHOL    C115103   0.851  13.748   4.031 -0.0551  0.2262 -0.1204
    1CHOL    C215104   0.870  13.299   3.940 -0.2301  0.1209  0.0400
    1CHOL   ROH15105  11.235  18.771   6.290 -0.1099 -0.1658  0.0116
    1CHOL    R115106  11.210  18.648   6.036 -0.1250 -0.0888 -0.0244
    1CHOL    R215107  11.097  18.776   5.819 -0.0633  0.0063 -0.0003
    1CHOL    R315108  11.332  18.710   5.699 -0.0731 -0.0360  0.0037
    1CHOL    R415109  11.128  18.673   5.491 -0.0805 -0.0152  0.0047
    1CHOL    R515110  11.276  18.526   5.556 -0.1024 -0.0352  0.0129
    1CHOL    C115111  11.367  18.552   5.187 -0.0997 -0.0673  0.0114
    1CHOL    C215112  11.435  18.402   4.883  0.2197  0.0769  0.1192
    1CHOL   ROH15113   4.987  15.669   2.817  0.0098  0.0604 -0.0211
    1CHOL    R115114   4.911  15.753   3.076  0.0643 -0.0639  0.0370
    1CHOL    R215115   4.666  15.871   3.129  0.1898  0.1925  0.0910
    1CHOL    R315116   4.646  15.672   3.313 -0.0800  0.0533 -0.0847
    1CHOL    R415117   4.449  15.871   3.397  0.0206  0.1236 -0.0454
    1CHOL    R515118   4.607  15.785   3.520 -0.1258 -0.0966 -0.0148
    1CHOL    C115119   4.303  15.684   3.726 -0.3313 -0.0471 -0.2899
    1CHOL    C215120   4.038  15.970   3.812  0.0176  0.0516  0.2972
    1CHOL   ROH15121  10.483  10.092   4.154 -0.1083  0.2497  0.0573
    1CHOL    R115122  10.470  10.170   4.426  0.0041  0.1623  0.0877
    1CHOL    R215123  10.549  10.004   4.632  0.0897  0.0975 -0.0006
    1CHOL    R315124  10.705  10.216   4.700  0.1167  0.0764  0.0072
    1CHOL    R415125  10.670  10.067   4.950  0.1942  0.0037 -0.0202
    1CHOL    R515126  10.629  10.279   4.918  0.1870  0.0162  0.0518
    1CHOL    C115127  10.887  10.303   5.198  0.2802 -0.0709 -0.0243
    1CHOL    C215128  10.804  10.541   5.377  0.2431 -0.1003  0.0533
    1CHOL   ROH15129   8.646   3.524   6.289 -0.1893 -0.0268  0.1202
    1CHOL    R115130   8.462   3.359   6.150 -0.0993 -0.1142  0.1029
    1CHOL    R215131   8.419   3.380   5.878 -0.1877 -0.0359  0.1216
    1CHOL    R315132   8.476   3.114   5.881  0.0208  0.0055 -0.0007
    1CHOL    R415133   8.301   3.150   5.648 -0.2526 -0.0699  0.1885
    1CHOL    R515134   8.273   3.009   5.812  0.0266 -0.1336  0.1874
    1CHOL    C115135   8.287   2.767   5.517 -0.0945 -0.0509  0.1128
    1CHOL    C215136   8.188   2.546   5.344 -0.2642  0.1691 -0.0689
    1CHOL   ROH15137   9.530  18.307   2.814 -0.1084 -0.2866  0.0058
    1CHOL    R115138   9.493  18.221   3.081 -0.0153 -0.2053  0.0458
    1CHOL    R215139   9.554  18.379   3.299  0.0783 -0.1453 -0.0231
    1CHOL    R315140   9.296  18.328   3.368  0.0996 -0.1061  0.0879
    1CHOL    R415141   9.396  18.501   3.581  0.2134 -0.1171  0.0409
    1CHOL    R515142   9.301  18.307   3.606  0.1961 -0.1015  0.0857
    1CHOL    C115143   9.063  18.524   3.811  0.3121 -0.0637  0.1824
    1CHOL    C215144   9.054  18.810   4.049 -0.0546  0.0008  0.2238
    1CHOL   ROH15145   1.497  23.499   5.052  0.0954 -0.0393 -0.0659
    1CHOL    R115146   1.528  23.679   4.835  0.0708 -0.0141 -0.0499
    1CHOL    R215147   1.432  23.624   4.581  0.1501 -0.0409 -0.0809
    1CHOL    R315148   1.307  23.863   4.612  0.0426 -0.0970 -0.0877
    1CHOL    R415149   1.279  23.802   4.327  0.2121 -0.0277 -0.1081
    1CHOL    R515150   1.360  23.985   4.413  0.0948 -0.0237 -0.0230
    1CHOL    C115151   1.073  24.130   4.209  0.1474 -0.0725 -0.1304
    1CHOL    C215152   1.278  24.208   3.956 -0.1422 -0.2633  0.1093
    1CHOL   ROH15153  22.077  18.953   2.862  0.0302  0.3528 -0.0570
    1CHOL    R115154  22.246  18.921   3.088  0.0910  0.1565 -0.1248
    1CHOL    R215155  22.337  19.136   3.237  0.3349  0.0538 -0.1006
    1CHOL    R315156  22.228  18.997   3.444  0.2823  0.0940 -0.1041
    1CHOL    R415157  22.428  19.171   3.568  0.5209 -0.1891 -0.1248
    1CHOL    R515158  22.412  18.955   3.590  0.2942 -0.1710 -0.2040
    1CHOL    C115159  22.379  19.062   3.955  0.5797 -0.2930 -0.1423
    1CHOL    C215160  22.192  19.105   4.401 -0.0812 -0.1365 -0.0169
    1CHOL   ROH15161  12.253  18.767   6.350 -0.0134  0.2686 -0.0442
    1CHOL    R115162  12.215  18.646   6.097 -0.0247  0.0658  0.0519
    1CHOL    R215163  12.145  18.790   5.871 -0.1818 -0.1324 -0.0332
    1CHOL    R315164  12.365  18.671   5.767 -0.1440 -0.0780 -0.0135
    1CHOL    R415165  12.206  18.750   5.534 -0.1618 -0.1650 -0.0251
    1CHOL    R515166  12.284  18.551   5.576 -0.1005 -0.1314  0.0044
    1CHOL    C115167  12.449  18.615   5.239 -0.1146 -0.1331 -0.0017
    1CHOL    C215168  12.623  18.482   4.868 -0.1867 -0.0077 -0.0321
    1CHOL   ROH15169  26.002   9.665   2.803  0.1162 -0.1255 -0.0964
    1CHOL    R115170  26.026   9.765   3.066  0.1073 -0.0776 -0.1141
    1CHOL    R215171  25.826   9.913   3.188  0.1072 -0.0495 -0.1515
    1CHOL    R315172  25.848   9.724   3.381  0.0922 -0.0136 -0.1137
    1CHOL    R415173  25.773   9.967   3.525 -0.2304 -0.0568 -0.2001
    1CHOL    R515174  25.944   9.840   3.568 -0.1615  0.0837 -0.0395
    1CHOL    C115175  25.762   9.821   3.903 -0.4412 -0.0273 -0.1929
    1CHOL    C215176  25.604   9.888   4.300 -0.1520 -0.1135 -0.1453
    1CHOL   ROH15177   8.354  25.471   3.762 -0.0380 -0.0284  0.0862
    1CHOL    R115178   8.566  25.460   3.949  0.1330 -0.1036 -0.1081
    1CHOL    R215179   8.530  25.379   4.211  0.2946  0.1380 -0.0067
    1CHOL    R315180   8.729  25.204   4.150  0.0555 -0.1207 -0.0676
    1CHOL    R415181   8.758  25.253   4.438  0.3201 -0.0109 -0.1129
    1CHOL    R515182   8.913  25.274   4.287  0.2372 -0.2623 -0.2365
    1CHOL    C115183   9.077  25.015   4.513  0.1104 -0.3402 -0.2321
    1CHOL    C215184   9.410  24.881   4.703 -0.0468  0.0461  0.0342
    1CHOL   ROH15185   7.775  12.971   6.303 -0.0793 -0.1493  0.0290
    1CHOL    R115186   7.775  12.830   6.058  0.0167 -0.0754 -0.0135
    1CHOL    R215187   7.593  12.880   5.857  0.1137  0.0033 -0.0795
    1CHOL    R315188   7.816  12.912   5.706  0.1843  0.0252  0.0273
    1CHOL    R415189   7.646  12.731   5.550  0.1597  0.2100 -0.1743
    1CHOL    R515190   7.853  12.696   5.609  0.1270  0.0785 -0.1213
    1CHOL    C115191   7.887  12.673   5.229  0.2528  0.3508 -0.1293
    1CHOL    C215192   7.691  12.690   4.862  0.0304  0.0750  0.0340
    1CHOL   ROH15193  21.554   4.978   6.538 -0.0473 -0.0409 -0.0535
    1CHOL    R115194  21.462   4.970   6.271  0.0614 -0.0206 -0.0928
    1CHOL    R215195  21.248   5.120   6.183 -0.1042 -0.2443 -0.0944
    1CHOL    R315196  21.426   5.207   5.997 -0.1374  0.0805  0.0203
    1CHOL    R415197  21.166   5.212   5.860 -0.0488 -0.4808 -0.1766
    1CHOL    R515198  21.347   5.112   5.791  0.2111 -0.1270 -0.0201
    1CHOL    C115199  21.285   5.346   5.497 -0.0478 -0.3136 -0.1168
    1CHOL    C215200  21.064   5.273   5.246  0.4305  0.0225 -0.0356
    1CHOL   ROH15201  23.551  28.081   3.733 -0.0323  0.2613 -0.0588
    1CHOL    R115202  23.453  28.030   3.994 -0.0723  0.1722 -0.0913
    1CHOL    R215203  23.523  28.184   4.211 -0.1510  0.1314 -0.0400
    1CHOL    R315204  23.254  28.208   4.241 -0.1624  0.0628 -0.0827
    1CHOL    R415205  23.368  28.327   4.485 -0.2217  0.1974 -0.1138
    1CHOL    R515206  23.217  28.169   4.475 -0.1753  0.1454 -0.0683
    1CHOL    C115207  23.024  28.433   4.672 -0.2740  0.1715 -0.1970
    1CHOL    C215208  22.719  28.422   4.974  0.2126  0.0435  0.1686
    1CHOL   ROH15209  25.388  21.804   4.027 -0.0781 -0.0733 -0.0560
    1CHOL    R115210  25.424  22.076   4.093 -0.1182 -0.1081  0.1138
    1CHOL    R215211  25.489  22.160   4.348  0.2119 -0.2866  0.0933
    1CHOL    R315212  25.694  22.284   4.220 -0.0312 -0.0810 -0.1099
    1CHOL    R415213  25.640  22.453   4.454  0.0409 -0.1471 -0.0428
    1CHOL    R515214  25.648  22.518   4.246 -0.2306 -0.1239 -0.0512
    1CHOL    C115215  25.921  22.739   4.395 -0.2870  0.1275 -0.3127
    1CHOL    C215216  26.193  22.957   4.597 -0.0200 -0.1955  0.1979
    1CHOL   ROH15217  14.912   8.374   6.868 -0.1503  0.1000 -0.1283
    1CHOL    R115218  14.806   8.338   6.608 -0.1053 -0.0882 -0.1220
    1CHOL    R215219  14.910   8.466   6.386 -0.2341 -0.0407 -0.1545
    1CHOL    R315220  14.928   8.213   6.289  0.0381 -0.0531 -0.0826
    1CHOL    R415221  14.969   8.386   6.055 -0.3904 -0.0605 -0.1783
    1CHOL    R515222  14.823   8.225   6.073 -0.1581 -0.2637 -0.0051
    1CHOL    C115223  15.020   8.102   5.771 -0.2260 -0.0836 -0.1245
    1CHOL    C215224  15.098   7.773   5.536 -0.0292 -0.1516 -0.1388
    1CHOL   ROH15225  18.685  11.561   5.882  0.2311 -0.0134  0.0309
    1CHOL    R115226  18.633  11.599   5.606 -0.0759 -0.1957  0.0579
    1CHOL    R215227  18.831  11.671   5.427 -0.3874  0.3283 -0.0974
    1CHOL    R315228  18.745  11.450   5.293  0.1214  0.0535  0.0068
    1CHOL    R415229  18.849  11.628   5.084 -0.4153  0.2705 -0.0915
    1CHOL    R515230  18.652  11.536   5.090 -0.1892 -0.2437  0.0161
    1CHOL    C115231  18.780  11.395   4.760  0.0458 -0.0211  0.0099
    1CHOL    C215232  18.593  11.669   4.498 -0.1222 -0.0899  0.2039
    1CHOL   ROH15233  16.880  19.377   2.746  0.0245 -0.1266 -0.1657
    1CHOL    R115234  16.804  19.416   3.016 -0.1745 -0.1583 -0.2164
    1CHOL    R215235  16.721  19.208   3.178  0.1826 -0.2626 -0.1619
    1CHOL    R315236  16.917  19.300   3.342 -0.0716  0.2225 -0.1115
    1CHOL    R415237  16.707  19.205   3.524  0.1070 -0.3195 -0.1649
    1CHOL    R515238  16.799  19.402   3.524 -0.3787 -0.0753 -0.1300
    1CHOL    C115239  16.884  19.290   3.879 -0.1757  0.1028 -0.1194
    1CHOL    C215240  16.685  19.378   4.211 -0.0110 -0.3428 -0.0796
    1CHOL   ROH15241   9.568  10.127   4.269 -0.1080 -0.0556  0.0094
    1CHOL    R115242   9.488  10.190   4.533 -0.0521 -0.2261  0.0683
    1CHOL    R215243   9.547  10.027   4.748  0.2270 -0.2359 -0.0087
    1CHOL    R315244   9.654  10.255   4.851  0.0305 -0.1498  0.0095
    1CHOL    R415245   9.643  10.069   5.078  0.2223 -0.1862 -0.0137
    1CHOL    R515246   9.560  10.271   5.071  0.0383 -0.2606  0.0198
    1CHOL    C115247   9.799  10.308   5.365  0.0350 -0.0764  0.0005
    1CHOL    C215248   9.685  10.482   5.677  0.1034  0.0955 -0.2243
    1CHOL   ROH15249  10.850  14.507   3.125  0.1260 -0.1118 -0.1253
    1CHOL    R115250  10.780  14.464   3.395 -0.0039  0.0351 -0.1359
    1CHOL    R215251  10.967  14.410   3.591 -0.1149 -0.0093 -0.0502
    1CHOL    R315252  10.851  14.622   3.715 -0.0278  0.1097 -0.1652
    1CHOL    R415253  11.007  14.488   3.925 -0.2492  0.0232 -0.0400
    1CHOL    R515254  10.795  14.539   3.933 -0.2226  0.1910 -0.1776
    1CHOL    C115255  10.921  14.732   4.237 -0.2457  0.1539 -0.1421
    1CHOL    C215256  10.787  14.748   4.585  0.0384  0.0026  0.0737
    1CHOL   ROH15257  25.352   3.244   6.210 -0.0035  0.2426  0.1489
    1CHOL    R115258  25.235   3.328   5.967 -0.0928  0.1962  0.1760
    1CHOL    R215259  25.272   3.582   5.864  0.1830  0.0595 -0.0733
    1CHOL    R315260  25.353   3.446   5.643 -0.1971 -0.2514 -0.0339
    1CHOL    R415261  25.178   3.658   5.540  0.2254  0.0955 -0.0780
    1CHOL    R515262  25.160   3.444   5.501 -0.2669  0.0988  0.0430
    1CHOL    C115263  25.199   3.574   5.144 -0.1064 -0.1754 -0.0437
    1CHOL    C215264  25.049   3.646   4.961  0.0561 -0.1007  0.2129
    1CHOL   ROH15265  12.203   8.575   4.116  0.2472  0.1202  0.1322
    1CHOL    R115266  12.116   8.583   4.385  0.1379  0.0278  0.1009
    1CHOL    R215267  12.274   8.681   4.589  0.0378  0.0043  0.1929
    1CHOL    R315268  12.058   8.839   4.637 -0.0139 -0.0530  0.1490
    1CHOL    R415269  12.185   8.803   4.900  0.2245  0.3868  0.1016
    1CHOL    R515270  11.976   8.764   4.849  0.2038  0.1931  0.3258
    1CHOL    C115271  11.930   9.023   5.125  0.2847  0.5557  0.0072
    1CHOL    C215272  11.766   9.042   5.437 -0.1236  0.1093  0.0953
    1CHOL   ROH15273   1.139  20.451   4.892  0.0007 -0.1450 -0.1218
    1CHOL    R115274   1.085  20.522   4.623 -0.0478 -0.0777 -0.0952
    1CHOL    R215275   0.910  20.379   4.464 -0.0349 -0.0728 -0.1193
    1CHOL    R315276   0.793  20.623   4.430 -0.0950 -0.0897 -0.0290
    1CHOL    R415277   0.650  20.446   4.246 -0.1898 -0.0961  0.0565
    1CHOL    R515278   0.747  20.635   4.196 -0.2528 -0.0809  0.0040
    1CHOL    C115279   0.390  20.713   4.087 -0.3364 -0.1254  0.2437
    1CHOL    C215280   0.159  20.635   3.734 -0.0497 -0.0465  0.1318
    1CHOL   ROH15281   8.766  16.335   3.475 -0.0046  0.0507 -0.1035
    1CHOL    R115282   8.720  16.454   3.727 -0.1580 -0.0373 -0.0875
    1CHOL    R215283   8.687  16.306   3.957  0.0095 -0.1127 -0.1057
    1CHOL    R315284   8.888  16.464   4.050 -0.1785  0.1173 -0.0819
    1CHOL    R415285   8.747  16.375   4.291  0.1224 -0.3576 -0.0738
    1CHOL    R515286   8.792  16.581   4.235 -0.2442 -0.2244  0.1046
    1CHOL    C115287   8.970  16.563   4.572  0.0115 -0.2843 -0.0328
    1CHOL    C215288   9.310  16.715   4.716 -0.3266 -0.4263 -0.1223
    1CHOL   ROH15289   8.455  20.896   2.954 -0.0887 -0.0314  0.1295
    1CHOL    R115290   8.323  21.128   3.050 -0.1778 -0.0491  0.0532
    1CHOL    R215291   8.224  21.148   3.307 -0.2150 -0.0134  0.0392
    1CHOL    R315292   8.377  21.373   3.314 -0.2886  0.0375 -0.0050
    1CHOL    R415293   8.201  21.395   3.547 -0.0787 -0.1238  0.1667
    1CHOL    R515294   8.228  21.544   3.390 -0.2773 -0.0474  0.2068
    1CHOL    C115295   8.331  21.750   3.694 -0.0686 -0.1399  0.1993
    1CHOL    C215296   8.278  22.120   3.747 -0.1444 -0.0236  0.2620
    1CHOL   ROH15297  27.910  28.691   6.337 -0.0927 -0.0289 -0.0754
    1CHOL    R115298  27.856  28.755   6.066 -0.1079 -0.0443 -0.0755
    1CHOL    R215299  27.880  28.570   5.862 -0.1839 -0.0731 -0.0559
    1CHOL    R315300  27.623  28.642   5.810 -0.1705 -0.0084 -0.0356
    1CHOL    R415301  27.736  28.576   5.548 -0.1368  0.1889 -0.0750
    1CHOL    R515302  27.635  28.761   5.603 -0.1284  0.1568  0.0585
    1CHOL    C115303  27.410  28.648   5.317 -0.0970  0.4021 -0.0671
    1CHOL    C215304  27.481  28.839   4.914  0.0784 -0.0483 -0.2787
    1CHOL   ROH15305  16.436  20.597   2.882  0.4594  0.3370 -0.1425
    1CHOL    R115306  16.506  20.721   3.127  0.2099  0.1563  0.0255
    1CHOL    R215307  16.331  20.739   3.340  0.0415 -0.1430 -0.0782
    1CHOL    R315308  16.534  20.620   3.476  0.0146 -0.1491 -0.0441
    1CHOL    R415309  16.343  20.702   3.683  0.0316 -0.0597 -0.0688
    1CHOL    R515310  16.556  20.750   3.676  0.0392 -0.1051 -0.0773
    1CHOL    C115311  16.540  20.568   4.011  0.0005 -0.0171 -0.0313
    1CHOL    C215312  16.609  20.659   4.288 -0.4044 -0.2708  0.0501
    1CHOL   ROH15313   9.124  11.723   3.801  0.1066 -0.0477  0.0039
    1CHOL    R115314   9.268  11.701   4.044  0.0752  0.0008  0.0264
    1CHOL    R215315   9.367  11.922   4.179 -0.0250  0.0339  0.0439
    1CHOL    R315316   9.226  11.817   4.387 -0.0204 -0.0178  0.0216
    1CHOL    R415317   9.424  11.993   4.512 -0.1402  0.0988  0.0508
    1CHOL    R515318   9.390  11.783   4.558 -0.0421  0.0846  0.0641
    1CHOL    C115319   9.326  11.937   4.901 -0.2030  0.0879  0.0338
    1CHOL    C215320   9.467  12.097   5.210  0.1519 -0.1044  0.0373
    1CHOL   ROH15321  25.620  21.603   5.294 -0.0246 -0.0470 -0.0735
    1CHOL    R115322  25.875  21.555   5.180 -0.0171 -0.0815 -0.0428
    1CHOL    R215323  25.917  21.364   4.984 -0.0264 -0.0604 -0.0632
    1CHOL    R315324  26.024  21.574   4.849  0.0374 -0.0638 -0.0183
    1CHOL    R415325  26.132  21.337   4.715 -0.2585 -0.0830 -0.2481
    1CHOL    R515326  26.246  21.504   4.795 -0.0572 -0.2200 -0.2327
    1CHOL    C115327  26.356  21.519   4.430 -0.3338 -0.0991 -0.3135
    1CHOL    C215328  26.506  21.652   4.154 -0.1299 -0.3011  0.2920
    1CHOL   ROH15329   1.548  23.222   2.367 -0.0255 -0.1609  0.0969
    1CHOL    R115330   1.590  23.223   2.647  0.0102 -0.1436  0.0911
    1CHOL    R215331   1.384  23.195   2.829  0.0123  0.0413  0.1204
    1CHOL    R315332   1.538  22.992   2.923 -0.1269 -0.0572  0.1390
    1CHOL    R415333   1.393  23.090   3.158 -0.0096  0.1158  0.1454
    1CHOL    R515334   1.608  23.066   3.140 -0.0283 -0.0567  0.1090
    1CHOL    C115335   1.542  22.837   3.438 -0.1530  0.0668  0.1774
    1CHOL    C215336   1.556  22.545   3.685  0.3303 -0.0234 -0.1814
    1CHOL   ROH15337   6.590  17.948   5.582 -0.0211  0.2653 -0.1066
    1CHOL    R115338   6.810  17.932   5.406  0.0299  0.1446 -0.0333
    1CHOL    R215339   7.072  17.932   5.495  0.0017 -0.0812  0.0598
    1CHOL    R315340   7.087  17.703   5.349 -0.1252 -0.0545  0.0028
    1CHOL    R415341   7.364  17.762   5.423 -0.0698 -0.1138 -0.1631
    1CHOL    R515342   7.289  17.726   5.222 -0.2032 -0.0615 -0.1219
    1CHOL    C115343   7.549  17.448   5.245 -0.2306 -0.1076 -0.3465
    1CHOL    C215344   7.881  17.210   5.117 -0.1015  0.2294 -0.0402
    1CHOL   ROH15345   9.801  15.959   3.015  0.3232  0.2579 -0.0961
    1CHOL    R115346   9.807  16.126   3.244  0.0852  0.1596 -0.0158
    1CHOL    R215347   9.666  16.068   3.474  0.0948 -0.1043 -0.0766
    1CHOL    R315348   9.910  16.095   3.591  0.0392  0.1126 -0.0053
    1CHOL    R415349   9.719  16.094   3.815 -0.0099 -0.4408 -0.0309
    1CHOL    R515350   9.871  16.245   3.774 -0.2195 -0.1603  0.1760
    1CHOL    C115351   9.979  16.134   4.123 -0.1232 -0.4332  0.0626
    1CHOL    C215352   9.693  16.221   4.366 -0.0580 -0.0417  0.0436
    1CHOL   ROH15353  20.287  14.957   2.753 -0.0955 -0.1600 -0.0104
    1CHOL    R115354  20.241  15.032   3.022 -0.0638 -0.1783  0.0001
    1CHOL    R215355  20.176  14.848   3.219  0.1932 -0.2245  0.0447
    1CHOL    R315356  20.390  14.959   3.346  0.1372 -0.0005 -0.0500
    1CHOL    R415357  20.187  14.928   3.555  0.2444 -0.1696  0.0304
    1CHOL    R515358  20.293  15.111   3.503  0.0492 -0.0719 -0.0345
    1CHOL    C115359  20.393  15.078   3.870  0.2216  0.0727 -0.0668
    1CHOL    C215360  20.438  14.993   4.270 -0.1068 -0.0868  0.2605
    1CHOL   ROH15361   9.521  18.079   6.034 -0.2334 -0.0191  0.0681
    1CHOL    R115362   9.626  17.968   5.795 -0.1085  0.0809  0.0760
    1CHOL    R215363   9.471  17.823   5.618  0.0274 -0.0055  0.0298
    1CHOL    R315364   9.565  18.003   5.438 -0.0609  0.0798  0.0672
    1CHOL    R415365   9.498  17.766   5.279  0.1153  0.0522  0.0262
    1CHOL    R515366   9.689  17.871   5.281  0.0498  0.1771  0.0688
    1CHOL    C115367   9.602  17.902   4.911  0.0835  0.1658  0.0591
    1CHOL    C215368   9.701  17.822   4.546  0.0618 -0.1953 -0.1253
    1CHOL   ROH15369  16.443  27.892   6.133  0.0449 -0.1284 -0.2131
    1CHOL    R115370  16.420  28.103   5.945  0.0296  0.0288 -0.0379
    1CHOL    R215371  16.594  28.317   5.941  0.1652 -0.0781 -0.0132
    1CHOL    R315372  16.626  28.245   5.680 -0.0890  0.0935 -0.0953
    1CHOL    R415373  16.782  28.492   5.708  0.1855 -0.0882 -0.0040
    1CHOL    R515374  16.626  28.452   5.561  0.0416  0.1895  0.0689
    1CHOL    C115375  16.921  28.525   5.329 -0.0410  0.0672 -0.0757
    1CHOL    C215376  17.076  28.943   5.237 -0.0009 -0.0615 -0.1143
    1CHOL   ROH15377   5.340  26.410   5.727  0.3369  0.1263  0.1994
    1CHOL    R115378   5.421  26.434   5.456  0.1629  0.0640  0.1405
    1CHOL    R215379   5.243  26.416   5.246  0.0340 -0.0349  0.2563
    1CHOL    R315380   5.349  26.656   5.177 -0.0575 -0.0327  0.1180
    1CHOL    R415381   5.141  26.607   4.976 -0.1246 -0.1694  0.2189
    1CHOL    R515382   5.351  26.655   4.938 -0.1521 -0.1279  0.1171
    1CHOL    C115383   5.182  26.944   4.755 -0.3029 -0.2460  0.0674
    1CHOL    C215384   5.312  27.262   4.547 -0.1332 -0.2393 -0.0099
    1CHOL   ROH15385   4.478  17.691   5.088 -0.0311 -0.0076 -0.0631
    1CHOL    R115386   4.626  17.819   4.883  0.0247  0.0051 -0.0150
    1CHOL    R215387   4.675  17.700   4.639 -0.0457  0.0835 -0.0661
    1CHOL    R315388   4.564  17.929   4.542  0.0661  0.1814  0.0325
    1CHOL    R415389   4.673  17.792   4.306 -0.3587  0.0207 -0.0844
    1CHOL    R515390   4.713  17.997   4.367 -0.0710 -0.0051 -0.1657
    1CHOL    C115391   4.567  18.059   4.020 -0.4360  0.0758 -0.0026
    1CHOL    C215392   4.977  18.172   3.883 -0.0923 -0.0573  0.2254
    1CHOL   ROH15393  15.934  21.472   3.283 -0.0952  0.0982  0.2210
    1CHOL    R115394  16.093  21.705   3.254 -0.0211  0.0309  0.0740
    1CHOL    R215395  16.051  21.933   3.404 -0.0114  0.1754 -0.1369
    1CHOL    R315396  16.314  21.902   3.466 -0.0417  0.1537 -0.0183
    1CHOL    R415397  16.231  22.142   3.613 -0.0588  0.2214 -0.1421
    1CHOL    R515398  16.400  22.125   3.476 -0.0067  0.1413 -0.0667
    1CHOL    C115399  16.582  22.234   3.793 -0.1150  0.2277 -0.0338
    1CHOL    C215400  16.440  22.155   4.174  0.0354  0.1213 -0.2397
    1CHOL   ROH15401  14.827  13.628   3.175  0.2882  0.1212  0.2048
    1CHOL    R115402  14.787  13.811   3.388  0.1104  0.0287  0.2542
    1CHOL    R215403  14.713  13.730   3.642  0.1827 -0.1109  0.2359
    1CHOL    R315404  14.933  13.871   3.715  0.0506  0.0793  0.2708
    1CHOL    R415405  14.817  13.779   3.968  0.1086 -0.0428  0.2487
    1CHOL    R515406  14.868  13.984   3.915 -0.0681  0.0051  0.2720
    1CHOL    C115407  15.084  13.940   4.226 -0.0586  0.1753  0.2889
    1CHOL    C215408  15.457  13.901   4.517 -0.1410  0.2094 -0.1076
    1CHOL   ROH15409   9.364   5.118   6.530 -0.3226  0.0394  0.0068
    1CHOL    R115410   9.206   5.217   6.316 -0.1981  0.0455 -0.0831
    1CHOL    R215411   9.314   5.288   6.072 -0.0737 -0.0728 -0.0616
    1CHOL    R315412   9.127   5.115   5.976 -0.1122 -0.0192 -0.0844
    1CHOL    R415413   9.234   5.249   5.738 -0.1140  0.0244 -0.0638
    1CHOL    R515414   9.024   5.233   5.795 -0.1120  0.0442 -0.0449
    1CHOL    C115415   9.012   5.064   5.454 -0.1736  0.1311 -0.0866
    1CHOL    C215416   9.056   4.791   5.094  0.2696 -0.0488 -0.1327
    1CHOL   ROH15417   6.361  14.908   4.896  0.0530 -0.1595 -0.0027
    1CHOL    R115418   6.127  14.973   4.749  0.0087 -0.2208  0.0401
    1CHOL    R215419   5.873  14.945   4.854  0.0391 -0.1783  0.1282
    1CHOL    R315420   5.850  15.206   4.782  0.0187 -0.2074  0.0271
    1CHOL    R415421   5.593  15.085   4.709  0.0865 -0.2882 -0.0734
    1CHOL    R515422   5.724  15.201   4.578  0.1314 -0.3034 -0.0401
    1CHOL    C115423   5.407  15.412   4.557  0.0949 -0.3797 -0.2855
    1CHOL    C215424   5.059  15.616   4.474  0.0924 -0.0353  0.1101
    1CHOL   ROH15425  30.006  10.410   3.111  0.0939 -0.0976  0.0139
    1CHOL    R115426  29.997  10.359   3.390  0.0518 -0.0694  0.0169
    1CHOL    R215427  29.937  10.555   3.575 -0.0842 -0.0778 -0.0228
    1CHOL    R315428  29.746  10.378   3.653 -0.0195 -0.1577 -0.0425
    1CHOL    R415429  29.784  10.554   3.885 -0.0655 -0.1777 -0.0128
    1CHOL    R515430  29.796  10.336   3.884  0.0105 -0.1775 -0.0496
    1CHOL    C115431  29.517  10.387   4.139  0.0062 -0.3111 -0.0256
    1CHOL    C215432  29.523  10.448   4.574 -0.0176  0.0280  0.1729
    1CHOL   ROH15433   9.250   8.811   4.199  0.5295 -0.0963  0.1400
    1CHOL    R115434   9.110   8.847   4.443  0.3582  0.1302  0.0127
    1CHOL    R215435   9.147   8.682   4.662  0.0116  0.1681  0.1093
    1CHOL    R315436   9.197   8.917   4.789  0.1398  0.1674  0.0605
    1CHOL    R415437   9.153   8.723   5.005  0.1392  0.2204  0.1009
    1CHOL    R515438   9.051   8.914   4.979  0.2029  0.2517  0.1079
    1CHOL    C115439   9.203   8.968   5.324  0.3338  0.2502  0.0501
    1CHOL    C215440   9.087   8.899   5.685  0.0905 -0.0592 -0.0090
    1CHOL   ROH15441  14.876   3.085   4.381  0.3630 -0.3023  0.0148
    1CHOL    R115442  14.816   3.106   4.657  0.1633 -0.2723 -0.0304
    1CHOL    R215443  14.871   2.904   4.838  0.1562 -0.1974  0.0501
    1CHOL    R315444  15.003   3.102   4.969 -0.0457 -0.0925  0.1015
    1CHOL    R415445  14.970   2.891   5.169  0.4519 -0.3242 -0.0386
    1CHOL    R515446  14.911   3.099   5.190  0.1351 -0.4248  0.1822
    1CHOL    C115447  15.151   3.069   5.485  0.4345 -0.2996 -0.0419
    1CHOL    C215448  15.325   2.967   5.830  0.0307 -0.0157 -0.1126
    1CHOL   ROH15449  20.086  13.677   2.486 -0.0752 -0.2324  0.0531
    1CHOL    R115450  20.201  13.725   2.740  0.0044 -0.3774  0.0453
    1CHOL    R215451  20.075  13.877   2.935  0.2374 -0.1577  0.0264
    1CHOL    R315452  20.115  13.656   3.087 -0.1002 -0.2043  0.0559
    1CHOL    R415453  20.080  13.872   3.280  0.5353 -0.0514  0.0276
    1CHOL    R515454  20.246  13.733   3.272  0.2382 -0.4186 -0.0831
    1CHOL    C115455  20.120  13.662   3.624  0.3919 -0.0330  0.0559
    1CHOL    C215456  20.190  13.573   3.964  0.2701  0.1784  0.1454
    1CHOL   ROH15457  17.683  11.944   6.157 -0.0219 -0.0458 -0.0642
    1CHOL    R115458  17.731  11.947   5.878  0.0813 -0.1863 -0.0498
    1CHOL    R215459  17.685  11.727   5.717 -0.0516 -0.2069  0.0108
    1CHOL    R315460  17.534  11.904   5.575  0.1498 -0.1233 -0.1033
    1CHOL    R415461  17.601  11.693   5.383  0.1726 -0.1621 -0.0513
    1CHOL    R515462  17.634  11.907   5.358  0.3109 -0.1810 -0.0308
    1CHOL    C115463  17.410  11.838   5.056  0.4921 -0.0575 -0.1945
    1CHOL    C215464  17.212  12.072   4.770  0.3423  0.0730 -0.0540
    1CHOL   ROH15465  16.908  10.823   6.269  0.0577 -0.1987  0.2327
    1CHOL    R115466  16.943  10.728   6.004  0.1313  0.0178  0.1660
    1CHOL    R215467  16.745  10.748   5.812  0.0663 -0.1401  0.2431
    1CHOL    R315468  16.941  10.871   5.670 -0.1456  0.2222  0.2441
    1CHOL    R415469  16.753  10.773   5.467  0.2570 -0.6561  0.1986
    1CHOL    R515470  16.968  10.735   5.474  0.4037 -0.0388  0.4588
    1CHOL    C115471  16.942  10.903   5.133  0.1693 -0.6164  0.1738
    1CHOL    C215472  16.983  11.109   4.789  0.2248 -0.1644  0.0152
    1CHOL   ROH15473  19.727   9.360   6.051  0.0923  0.2080 -0.1670
    1CHOL    R115474  19.768   9.184   5.833 -0.0670  0.0965 -0.1104
    1CHOL    R215475  19.634   9.212   5.592 -0.0014  0.1767 -0.1429
    1CHOL    R315476  19.886   9.213   5.490  0.0208 -0.1301 -0.0995
    1CHOL    R415477  19.722   9.088   5.282 -0.0995  0.1070 -0.1427
    1CHOL    R515478  19.903   9.006   5.371 -0.2191 -0.1354 -0.1240
    1CHOL    C115479  20.010   9.017   5.005 -0.1359 -0.2215 -0.1019
    1CHOL    C215480  20.056   8.691   4.881  0.2213  0.5854  0.0874
    1CHOL   ROH15481  12.413  11.552   3.397 -0.0858  0.1946 -0.1772
    1CHOL    R115482  12.486  11.607   3.665 -0.1494  0.1885 -0.1586
    1CHOL    R215483  12.371  11.811   3.812 -0.2710  0.1087 -0.1416
    1CHOL    R315484  12.319  11.611   3.988 -0.1961  0.0546 -0.1803
    1CHOL    R415485  12.364  11.847   4.155 -0.0990 -0.0020 -0.1250
    1CHOL    R515486  12.464  11.655   4.173 -0.1016 -0.0144 -0.2371
    1CHOL    C115487  12.310  11.681   4.521  0.0714 -0.1172 -0.1515
    1CHOL    C215488  12.409  11.779   4.912 -0.1524  0.2314 -0.1326
    1CHOL   ROH15489  11.426  20.954   6.225  0.1901 -0.2088 -0.0218
    1CHOL    R115490  11.319  21.035   5.975  0.0000 -0.1889  0.0649
    1CHOL    R215491  11.471  21.162   5.783 -0.1813 -0.0508  0.0140
    1CHOL    R315492  11.381  20.960   5.625 -0.1681 -0.0485  0.0031
    1CHOL    R415493  11.444  21.177   5.438  0.1293 -0.1410 -0.0175
    1CHOL    R515494  11.255  21.071   5.453  0.0460 -0.0221 -0.1444
    1CHOL    C115495  11.344  20.997   5.090  0.3225 -0.1914 -0.0461
    1CHOL    C215496  11.609  21.240   4.960 -0.1302 -0.2756 -0.2785
    1CHOL   ROH15497   9.544  14.593   6.547  0.1840 -0.0805 -0.0034
    1CHOL    R115498   9.483  14.472   6.298 -0.0799 -0.0143  0.0246
    1CHOL    R215499   9.317  14.590   6.111  0.0308  0.2224  0.0657
    1CHOL    R315500   9.530  14.552   5.946 -0.0708 -0.1107  0.0051
    1CHOL    R415501   9.301  14.582   5.766 -0.0478  0.4383  0.0633
    1CHOL    R515502   9.444  14.418   5.768 -0.3696  0.1519 -0.0526
    1CHOL    C115503   9.491  14.542   5.410 -0.1890  0.2512  0.0049
    1CHOL    C215504   9.318  14.383   5.100 -0.1675 -0.1122 -0.2446
    1CHOL   ROH15505  14.538  15.935   6.310  0.2345 -0.1070  0.0579
    1CHOL    R115506  14.605  15.979   6.039  0.2128 -0.1223  0.0493
    1CHOL    R215507  14.811  15.844   5.913  0.1428 -0.1987  0.0120
    1CHOL    R315508  14.616  15.782   5.734  0.0910 -0.1149  0.0401
    1CHOL    R415509  14.859  15.805   5.573  0.0383 -0.0130 -0.0250
    1CHOL    R515510  14.671  15.909   5.539  0.0210 -0.0069  0.0905
    1CHOL    C115511  14.704  15.723   5.207 -0.0713  0.1736 -0.0202
    1CHOL    C215512  14.809  15.602   4.884 -0.3478 -0.0933  0.1628
    1CHOL   ROH15513  13.796  13.497   6.599  0.0977  0.0239 -0.0912
    1CHOL    R115514  13.699  13.559   6.341 -0.2367 -0.1169 -0.0051
    1CHOL    R215515  13.863  13.573   6.118 -0.4185  0.3220 -0.1236
    1CHOL    R315516  13.685  13.395   6.016 -0.0986 -0.0603 -0.0404
    1CHOL    R415517  13.817  13.511   5.782 -0.3344  0.1033 -0.0966
    1CHOL    R515518  13.602  13.500   5.818 -0.3195 -0.2880 -0.0749
    1CHOL    C115519  13.622  13.308   5.490  0.0148 -0.3827 -0.0027
    1CHOL    C215520  13.493  13.154   5.140  0.0346 -0.1071 -0.0496
    1CHOL   ROH15521  29.556  28.476   3.827  0.2530  0.0247  0.0982
    1CHOL    R115522  29.579  28.479   4.109  0.1872  0.0485  0.1036
    1CHOL    R215523  29.360  28.487   4.276  0.1477  0.0502  0.0521
    1CHOL    R315524  29.475  28.267   4.386  0.1342  0.0652  0.0966
    1CHOL    R415525  29.297  28.370   4.595  0.0468  0.0484  0.0318
    1CHOL    R515526  29.510  28.326   4.615  0.0451  0.0729  0.1085
    1CHOL    C115527  29.369  28.094   4.883 -0.0247  0.0615  0.0617
    1CHOL    C215528  29.623  27.993   5.170 -0.3872 -0.0943  0.0175
    1CHOL   ROH15529  18.036  16.803   6.152  0.1873 -0.0681  0.1133
    1CHOL    R115530  18.147  16.799   5.891  0.0912 -0.0899  0.0719
    1CHOL    R215531  18.005  16.712   5.671 -0.0369  0.0137  0.1074
    1CHOL    R315532  18.074  16.955   5.571  0.0539 -0.0062  0.1223
    1CHOL    R415533  17.990  16.799   5.337  0.2725 -0.0413  0.0767
    1CHOL    R515534  18.179  16.905   5.361  0.2460 -0.0389  0.2288
    1CHOL    C115535  18.047  17.078   5.048  0.5374 -0.0920  0.0729
    1CHOL    C215536  18.025  17.130   4.733 -0.1684  0.1680  0.0737
    1CHOL   ROH15537  16.750  12.177   6.298  0.0331 -0.1299 -0.1607
    1CHOL    R115538  16.640  12.324   6.083  0.0937  0.0216 -0.0913
    1CHOL    R215539  16.779  12.372   5.848  0.0775 -0.0147 -0.1148
    1CHOL    R315540  16.560  12.260   5.733 -0.0377  0.1850 -0.0906
    1CHOL    R415541  16.705  12.385   5.511  0.0679  0.0101 -0.1108
    1CHOL    R515542  16.496  12.416   5.564  0.1043  0.2209 -0.1067
    1CHOL    C115543  16.455  12.288   5.207 -0.0458  0.2120 -0.0857
    1CHOL    C215544  16.206  12.381   4.991 -0.0447 -0.0109  0.1063
    1CHOL   ROH15545  11.855  17.760   6.444  0.1300 -0.2368 -0.0727
    1CHOL    R115546  11.788  17.673   6.183 -0.0228 -0.0385 -0.1022
    1CHOL    R215547  11.781  17.845   5.966  0.1974  0.0647 -0.0323
    1CHOL    R315548  11.952  17.664   5.858 -0.0673 -0.1389 -0.1216
    1CHOL    R415549  11.807  17.777   5.629  0.0319  0.1184 -0.0573
    1CHOL    R515550  11.828  17.565   5.678 -0.2406  0.0748 -0.1219
    1CHOL    C115551  11.984  17.567   5.330 -0.3131 -0.0413 -0.1556
    1CHOL    C215552  12.174  17.657   4.948 -0.1052 -0.3542 -0.2347
    1CHOL   ROH15553  20.099  17.406   2.919 -0.0762 -0.0834  0.0468
    1CHOL    R115554  20.019  17.451   3.187 -0.1554 -0.2226  0.0469
    1CHOL    R215555  20.075  17.273   3.390  0.0866 -0.1666  0.0275
    1CHOL    R315556  20.185  17.491   3.509 -0.2284 -0.0197  0.0619
    1CHOL    R415557  20.075  17.333   3.731  0.2139 -0.3589  0.0637
    1CHOL    R515558  20.034  17.543   3.688 -0.2086 -0.3973  0.2027
    1CHOL    C115559  20.179  17.573   4.040 -0.0077 -0.3331  0.1172
    1CHOL    C215560  20.400  17.527   4.376 -0.0506 -0.2188 -0.0746
    1CHOL   ROH15561  10.966  24.575   5.617 -0.1832 -0.0918 -0.1913
    1CHOL    R115562  11.153  24.754   5.503 -0.2187  0.1545  0.1246
    1CHOL    R215563  11.220  24.749   5.235  0.4467  0.0494  0.2776
    1CHOL    R315564  11.150  25.011   5.245 -0.0633 -0.0577 -0.0942
    1CHOL    R415565  11.330  24.992   5.015  0.4624  0.0479  0.2838
    1CHOL    R515566  11.349  25.129   5.183 -0.1344  0.2462  0.2162
    1CHOL    C115567  11.328  25.379   4.897 -0.0071 -0.0536 -0.0617
    1CHOL    C215568  11.103  25.499   4.662 -0.0245 -0.0063 -0.0142
    1CHOL   ROH15569   8.628  12.554   6.563  0.0631 -0.0495 -0.0749
    1CHOL    R115570   8.731  12.449   6.321  0.2383  0.0721 -0.0564
    1CHOL    R215571   8.572  12.398   6.102  0.2798 -0.3999  0.0064
    1CHOL    R315572   8.752  12.556   5.974 -0.1151 -0.0292 -0.1108
    1CHOL    R415573   8.630  12.396   5.761  0.2576 -0.4679  0.0036
    1CHOL    R515574   8.843  12.417   5.802  0.2177  0.0844 -0.0274
    1CHOL    C115575   8.833  12.544   5.443 -0.1260 -0.1595 -0.1078
    1CHOL    C215576   9.152  12.438   5.258 -0.0474  0.0684 -0.0710
    1CHOL   ROH15577   9.209  10.467   4.243 -0.2215  0.1074 -0.0118
    1CHOL    R115578   9.167  10.590   4.494 -0.1176  0.0306  0.0439
    1CHOL    R215579   9.095  10.448   4.720  0.0395 -0.0465  0.0453
    1CHOL    R315580   9.314  10.569   4.827  0.0662 -0.0202 -0.0385
    1CHOL    R415581   9.143  10.507   5.057 -0.0058  0.2790 -0.0028
    1CHOL    R515582   9.226  10.702   5.006  0.0798  0.1984 -0.1884
    1CHOL    C115583   9.376  10.656   5.353 -0.0070  0.4930 -0.1094
    1CHOL    C215584   9.129  10.757   5.594  0.1805 -0.0068 -0.0397
    1CHOL   ROH15585   2.646  19.296   4.802 -0.2908  0.0219  0.1596
    1CHOL    R115586   2.704  19.095   4.611 -0.1412  0.0456  0.1793
    1CHOL    R215587   2.547  18.870   4.579 -0.0833  0.0199  0.0689
    1CHOL    R315588   2.540  18.951   4.320  0.0576  0.0371  0.0694
    1CHOL    R415589   2.566  18.659   4.306  0.0286  0.0350  0.0645
    1CHOL    R515590   2.694  18.806   4.208  0.0965  0.0252  0.1379
    1CHOL    C115591   2.570  18.613   3.903  0.2261  0.0599  0.0624
    1CHOL    C215592   2.688  18.345   3.598 -0.3035  0.0655  0.2537
    1CHOL   ROH15593   5.724  25.114   3.461  0.2274  0.1551  0.4031
    1CHOL    R115594   5.638  24.892   3.615  0.2208 -0.0440  0.1196
    1CHOL    R215595   5.378  24.866   3.704  0.2820 -0.0194  0.2993
    1CHOL    R315596   5.392  24.626   3.579  0.0193  0.1649 -0.1086
    1CHOL    R415597   5.134  24.622   3.718  0.3426 -0.0691  0.5455
    1CHOL    R515598   5.292  24.472   3.734  0.4231 -0.0806 -0.0692
    1CHOL    C115599   5.005  24.254   3.609  0.1314  0.0748  0.3058
    1CHOL    C215600   4.686  24.195   3.576  0.3407  0.0046 -0.1008
    1CHOL   ROH15601  17.159  16.872   6.291 -0.2663  0.0330  0.2484
    1CHOL    R115602  17.193  16.995   6.039 -0.1539  0.1519  0.3200
    1CHOL    R215603  17.124  16.871   5.802  0.2054  0.1492  0.2064
    1CHOL    R315604  16.979  17.097   5.763 -0.0034  0.0078  0.1486
    1CHOL    R415605  17.043  17.003   5.493 -0.0558 -0.0770  0.1751
    1CHOL    R515606  17.081  17.202   5.573 -0.1852 -0.0043  0.0467
    1CHOL    C115607  16.859  17.292   5.277 -0.4040 -0.3415  0.1025
    1CHOL    C215608  16.728  17.054   4.956 -0.0385 -0.0355 -0.0461
    1CHOL   ROH15609  19.377  11.154   2.872  0.0317 -0.0443 -0.0003
    1CHOL    R115610  19.495  11.284   3.094 -0.1720  0.0850  0.0353
    1CHOL    R215611  19.348  11.372   3.310 -0.3085 -0.2774  0.0963
    1CHOL    R315612  19.525  11.221   3.451 -0.0022 -0.0134  0.0053
    1CHOL    R415613  19.438  11.429   3.639 -0.2403 -0.1507  0.0557
    1CHOL    R515614  19.644  11.380   3.586 -0.1820  0.1703 -0.0455
    1CHOL    C115615  19.657  11.322   3.962  0.0869  0.1710 -0.0534
    1CHOL    C215616  19.776  11.139   4.233  0.1707  0.1241  0.2285
    1CHOL   ROH15617  21.071   0.994   6.210  0.0928 -0.1329 -0.1597
    1CHOL    R115618  20.966   1.121   5.980 -0.1225 -0.0756 -0.0338
    1CHOL    R215619  21.067   1.077   5.726 -0.0132  0.3749 -0.0826
    1CHOL    R315620  20.808   1.017   5.669  0.0933 -0.0443 -0.1542
    1CHOL    R415621  20.923   1.102   5.413 -0.0624  0.4827 -0.0512
    1CHOL    R515622  20.744   1.182   5.507 -0.2164  0.0327  0.0457
    1CHOL    C115623  20.596   1.061   5.177  0.0091  0.1521 -0.1000
    1CHOL    C215624  20.251   0.954   5.057 -0.2322 -0.1284 -0.2252
    1CHOL   ROH15625  13.952  13.483   3.539 -0.2449 -0.1497  0.0299
    1CHOL    R115626  13.815  13.543   3.780 -0.0611 -0.0510  0.1118
    1CHOL    R215627  13.893  13.441   4.024  0.0999  0.0134  0.0904
    1CHOL    R315628  13.897  13.703   4.097  0.1968  0.0360  0.0044
    1CHOL    R415629  13.914  13.556   4.350 -0.1057  0.1101  0.0707
    1CHOL    R515630  13.769  13.710   4.299  0.0294  0.1815 -0.1045
    1CHOL    C115631  13.930  13.869   4.607 -0.1343  0.1876 -0.0214
    1CHOL    C215632  14.092  13.906   4.915  0.2928 -0.0886  0.1379
    1CHOL   ROH15633  10.446  19.268   3.073 -0.0425  0.2474  0.1325
    1CHOL    R115634  10.373  19.279   3.346 -0.0872  0.0791  0.1292
    1CHOL    R215635  10.223  19.082   3.468 -0.0067 -0.0581  0.0154
    1CHOL    R315636  10.430  19.078   3.644 -0.0272 -0.0373  0.0391
    1CHOL    R415637  10.199  18.982   3.798 -0.0282 -0.0774  0.0075
    1CHOL    R515638  10.332  19.146   3.852 -0.0590 -0.0626  0.0308
    1CHOL    C115639  10.380  18.919   4.155 -0.0599 -0.0693  0.0251
    1CHOL    C215640  10.208  18.641   4.212 -0.0022 -0.1262 -0.0003
    1CHOL   ROH15641  15.893  12.886   2.945  0.1217 -0.2668  0.1342
    1CHOL    R115642  15.900  12.750   3.193  0.2159 -0.2022  0.1675
    1CHOL    R215643  16.075  12.817   3.395  0.1969 -0.0584  0.1347
    1CHOL    R315644  15.847  12.834   3.543  0.2006 -0.1442  0.1518
    1CHOL    R415645  16.061  12.806   3.741  0.2638  0.2477  0.1502
    1CHOL    R515646  15.882  12.683   3.725  0.3783  0.0551  0.2895
    1CHOL    C115647  15.839  12.816   4.080  0.3062  0.3453  0.1754
    1CHOL    C215648  16.026  12.971   4.336  0.0923  0.1032 -0.0650
    1CHOL   ROH15649  21.243   6.437   3.673  0.2030  0.4377 -0.0445
    1CHOL    R115650  21.196   6.472   3.950  0.0362 -0.0653  0.0008
    1CHOL    R215651  21.252   6.276   4.136  0.4868 -0.1997 -0.2564
    1CHOL    R315652  21.395   6.475   4.254 -0.0394  0.0185  0.0489
    1CHOL    R415653  21.394   6.258   4.451  0.5240 -0.2963 -0.2788
    1CHOL    R515654  21.333   6.464   4.485 -0.0286 -0.4947  0.0364
    1CHOL    C115655  21.611   6.434   4.744  0.0518 -0.1477 -0.0052
    1CHOL    C215656  21.529   6.390   5.078  0.1264  0.0238  0.1955
    1CHOL   ROH15657  13.376   2.063   6.955  0.0557  0.0331  0.0891
    1CHOL    R115658  13.476   1.944   6.718 -0.1163  0.0496  0.0068
    1CHOL    R215659  13.336   1.947   6.480 -0.1357  0.3780  0.0178
    1CHOL    R315660  13.566   2.056   6.384  0.0000  0.1442  0.0690
    1CHOL    R415661  13.461   1.896   6.162 -0.1763  0.3388  0.0080
    1CHOL    R515662  13.661   1.884   6.248 -0.1923  0.0764  0.0164
    1CHOL    C115663  13.750   1.969   5.887 -0.0726  0.0964  0.0503
    1CHOL    C215664  13.732   2.087   5.488 -0.1740 -0.0615  0.0414
    1CHOL   ROH15665  21.807  26.308   3.643 -0.2163 -0.0548 -0.2518
    1CHOL    R115666  21.577  26.430   3.754 -0.2162 -0.0802 -0.2229
    1CHOL    R215667  21.326  26.315   3.742 -0.1731 -0.2005 -0.0223
    1CHOL    R315668  21.332  26.349   4.012 -0.0554 -0.0148 -0.0469
    1CHOL    R415669  21.067  26.445   3.931 -0.0484  0.0399 -0.0129
    1CHOL    R515670  21.214  26.554   4.048  0.0439  0.0620 -0.1450
    1CHOL    C115671  20.922  26.552   4.294  0.1347  0.3543 -0.0305
    1CHOL    C215672  20.629  26.689   4.401 -0.0061  0.0841  0.0038
    1CHOL   ROH15673  11.036  16.423   6.611 -0.2353 -0.0550 -0.0727
    1CHOL    R115674  10.983  16.377   6.337  0.0514 -0.0827 -0.1270
    1CHOL    R215675  10.792  16.519   6.196 -0.0473 -0.3309 -0.2532
    1CHOL    R315676  11.000  16.570   6.029  0.0214  0.0033 -0.0749
    1CHOL    R415677  10.762  16.579   5.857  0.1491 -0.3885 -0.2813
    1CHOL    R515678  10.941  16.458   5.825  0.3781 -0.1013 -0.1266
    1CHOL    C115679  10.940  16.661   5.502  0.3280 -0.1084 -0.1304
    1CHOL    C215680  10.695  16.461   5.226 -0.0518  0.0856  0.0982
    1CHOL   ROH15681  28.797   9.912   5.212  0.2052  0.1467 -0.1420
    1CHOL    R115682  28.738   9.743   4.993  0.2203  0.0815 -0.0959
    1CHOL    R215683  28.542   9.803   4.807  0.0627 -0.0933  0.0095
    1CHOL    R315684  28.746   9.769   4.630 -0.0066  0.0632 -0.1033
    1CHOL    R415685  28.513   9.652   4.498 -0.0114 -0.0201 -0.0197
    1CHOL    R515686  28.705   9.555   4.532  0.0568  0.0697 -0.1436
    1CHOL    C115687  28.687   9.531   4.152 -0.1196  0.1695 -0.1428
    1CHOL    C215688  28.945   9.607   3.859 -0.0478  0.0773 -0.0651
    1CHOL   ROH15689   2.600   9.787   5.807  0.1085 -0.0624 -0.0182
    1CHOL    R115690   2.555   9.639   5.570  0.0566  0.0638 -0.0899
    1CHOL    R215691   2.680   9.699   5.330  0.1308  0.0936 -0.0516
    1CHOL    R315692   2.755   9.438   5.342 -0.0235  0.0456 -0.1416
    1CHOL    R415693   2.842   9.529   5.077  0.2366  0.1424 -0.0157
    1CHOL    R515694   2.717   9.355   5.120  0.1084  0.1901 -0.2146
    1CHOL    C115695   3.007   9.185   4.940  0.1534  0.1257 -0.0793
    1CHOL    C215696   3.384   9.031   4.866  0.2066  0.0868  0.0449
    1CHOL   ROH15697  19.678  16.635   6.117 -0.2072  0.0594 -0.0711
    1CHOL    R115698  19.636  16.691   5.843 -0.1920 -0.1139 -0.1111
    1CHOL    R215699  19.836  16.790   5.679 -0.2624  0.0801 -0.0910
    1CHOL    R315700  19.773  16.575   5.526  0.0684 -0.0770 -0.0126
    1CHOL    R415701  19.816  16.792   5.334 -0.2878 -0.0832 -0.0901
    1CHOL    R515702  19.640  16.664   5.349 -0.0844 -0.3558 -0.0378
    1CHOL    C115703  19.745  16.590   4.990  0.0079 -0.3257 -0.0159
    1CHOL    C215704  19.796  16.841   4.723  0.1031  0.2067 -0.2401
    1CHOL   ROH15705  12.956  20.099   3.146 -0.0377  0.0994 -0.0690
    1CHOL    R115706  12.856  20.222   3.380  0.0419  0.1374 -0.0549
    1CHOL    R215707  12.639  20.123   3.520  0.0090  0.2355 -0.0410
    1CHOL    R315708  12.811  20.130   3.730  0.0284  0.1458 -0.0531
    1CHOL    R415709  12.544  20.128   3.852  0.0258  0.2061 -0.0358
    1CHOL    R515710  12.703  20.273   3.889  0.0773  0.1544 -0.0217
    1CHOL    C115711  12.650  20.138   4.242  0.0539  0.1048 -0.0441
    1CHOL    C215712  12.381  20.039   4.454  0.0172 -0.1125 -0.1043
    1CHOL   ROH15713  15.931  13.800   6.332  0.2964 -0.1721 -0.0490
    1CHOL    R115714  15.880  13.922   6.081  0.2594 -0.1053 -0.0099
    1CHOL    R215715  16.006  13.843   5.849  0.1297 -0.1341 -0.0761
    1CHOL    R315716  15.752  13.816   5.758  0.0779  0.0089  0.0245
    1CHOL    R415717  15.920  13.787   5.519 -0.0276 -0.3075 -0.0068
    1CHOL    R515718  15.753  13.925   5.544  0.0978 -0.1522 -0.0555
    1CHOL    C115719  15.631  13.729   5.241 -0.1678 -0.2743  0.1281
    1CHOL    C215720  15.528  13.757   4.973  0.1960  0.1676  0.0746
    1CHOL   ROH15721  11.973  11.670   3.624 -0.0194 -0.1210 -0.0716
    1CHOL    R115722  11.840  11.688   3.873 -0.0365 -0.0823 -0.0841
    1CHOL    R215723  11.894  11.516   4.083 -0.0404 -0.0383 -0.0514
    1CHOL    R315724  11.936  11.747   4.219 -0.0648 -0.0117 -0.0872
    1CHOL    R415725  11.889  11.545   4.427  0.0638 -0.0140 -0.0511
    1CHOL    R515726  11.784  11.735   4.405 -0.0033 -0.0444 -0.0349
    1CHOL    C115727  11.925  11.778   4.756  0.1017  0.0251 -0.0846
    1CHOL    C215728  11.818  11.720   5.107  0.0737  0.0785 -0.0484
    1CHOL   ROH15729   9.679   9.014   4.220 -0.1743  0.1109 -0.0773
    1CHOL    R115730   9.568   9.012   4.480  0.0054 -0.0105 -0.0003
    1CHOL    R215731   9.714   8.937   4.703  0.2297  0.1092 -0.1045
    1CHOL    R315732   9.634   9.179   4.797  0.0666  0.0297 -0.0335
    1CHOL    R415733   9.695   9.022   5.037  0.1941  0.0036 -0.0789
    1CHOL    R515734   9.508   9.128   4.994  0.1153 -0.1135 -0.0373
    1CHOL    C115735   9.608   9.300   5.320  0.0202 -0.1326  0.0027
    1CHOL    C215736   9.532   9.346   5.689  0.1830  0.0752  0.3665
    1CHOL   ROH15737  10.584   1.126   4.304  0.0147 -0.0405 -0.0185
    1CHOL    R115738  10.596   1.106   4.586  0.0012 -0.0319 -0.0175
    1CHOL    R215739  10.383   1.017   4.738  0.0018 -0.0481 -0.0273
    1CHOL    R315740  10.566   0.840   4.833  0.0135 -0.0282 -0.0118
    1CHOL    R415741  10.316   0.765   4.965 -0.0405 -0.2012 -0.2065
    1CHOL    R515742  10.506   0.809   5.063 -0.1167 -0.1787 -0.0645
    1CHOL    C115743  10.449   0.453   5.187 -0.0543 -0.2716 -0.2963
    1CHOL    C215744  10.219   0.333   5.461 -0.2619  0.0346 -0.0246
    1CHOL   ROH15745  22.864  17.747   5.888  0.0743  0.0625 -0.0163
    1CHOL    R115746  22.958  17.719   5.622  0.0609 -0.0294 -0.0111
    1CHOL    R215747  22.802  17.615   5.420  0.0130  0.0056  0.0110
    1CHOL    R315748  22.866  17.847   5.294  0.1200 -0.0466 -0.0351
    1CHOL    R415749  22.847  17.649   5.079  0.1390 -0.1040  0.0145
    1CHOL    R515750  23.015  17.782   5.119  0.1627 -0.1385  0.0339
    1CHOL    C115751  22.932  17.888   4.763  0.3128 -0.2166 -0.0267
    1CHOL    C215752  23.161  17.763   4.520  0.1232  0.0956 -0.1184
    1CHOL   ROH15753  10.562  20.460   2.981 -0.0458  0.2039 -0.0041
    1CHOL    R115754  10.528  20.371   3.248  0.0188  0.0587 -0.0408
    1CHOL    R215755  10.642  20.501   3.464  0.0132 -0.0071  0.0217
    1CHOL    R315756  10.387  20.504   3.556  0.0199 -0.1312  0.0375
    1CHOL    R415757  10.550  20.447   3.792  0.0161 -0.1960 -0.0090
    1CHOL    R515758  10.381  20.330   3.721  0.0618 -0.2019 -0.0531
    1CHOL    C115759  10.256  20.419   4.070  0.0240 -0.4224 -0.0121
    1CHOL    C215760  10.034  20.229   4.270  0.0305 -0.3952  0.4816
    1CHOL   ROH15761  11.538  26.485   4.817 -0.0424 -0.1515 -0.0849
    1CHOL    R115762  11.393  26.330   4.630 -0.0896 -0.1926 -0.0172
    1CHOL    R215763  11.509  26.227   4.401 -0.2166  0.0180 -0.1906
    1CHOL    R315764  11.412  25.991   4.496  0.0921 -0.1128 -0.1912
    1CHOL    R415765  11.357  25.984   4.208 -0.5860  0.1472 -0.0693
    1CHOL    R515766  11.213  25.954   4.369 -0.1984 -0.0634  0.2423
    1CHOL    C115767  11.178  25.622   4.185 -0.5112  0.0998  0.0007
    1CHOL    C215768  10.879  25.630   4.043 -0.1487  0.1645 -0.0996
    1CHOL   ROH15769   9.407  25.483   5.569 -0.0082  0.0309 -0.2243
    1CHOL    R115770   9.179  25.546   5.413 -0.0807  0.0998 -0.0916
    1CHOL    R215771   9.024  25.770   5.458  0.0260  0.1523 -0.0113
    1CHOL    R315772   9.074  25.818   5.195 -0.1206  0.1222 -0.0465
    1CHOL    R415773   8.810  25.936   5.244 -0.0146  0.3038  0.1434
    1CHOL    R515774   8.861  25.792   5.088 -0.2184  0.2675  0.1012
    1CHOL    C115775   8.732  26.078   4.872 -0.1758  0.3638  0.2004
    1CHOL    C215776   8.459  26.244   4.510  0.0684 -0.1412 -0.2675
    1CHOL   ROH15777  14.581  19.397   2.951 -0.0620  0.0652  0.0198
    1CHOL    R115778  14.732  19.362   3.188 -0.0853  0.0001  0.0258
    1CHOL    R215779  14.737  19.550   3.391  0.0311  0.0252  0.0040
    1CHOL    R315780  14.663  19.338   3.545 -0.1057  0.0893  0.0272
    1CHOL    R415781  14.741  19.545   3.737  0.2336 -0.0160  0.0018
    1CHOL    R515782  14.816  19.341   3.728  0.0079 -0.0965 -0.0649
    1CHOL    C115783  14.674  19.343   4.082  0.2231  0.0198  0.0223
    1CHOL    C215784  14.597  19.318   4.550  0.0680  0.1121 -0.0357
    1CHOL   ROH15785   9.797  22.124   4.276  0.1337 -0.1320 -0.0594
    1CHOL    R115786   9.803  21.853   4.198 -0.0065 -0.1454 -0.0289
    1CHOL    R215787   9.707  21.649   4.358  0.0264 -0.0953  0.0617
    1CHOL    R315788   9.560  21.589   4.137 -0.1350 -0.0711  0.1616
    1CHOL    R415789   9.543  21.349   4.304  0.1812 -0.1764  0.0374
    1CHOL    R515790   9.605  21.358   4.096 -0.0153 -0.0152 -0.0134
    1CHOL    C115791   9.309  21.119   4.066  0.1198 -0.2012  0.1169
    1CHOL    C215792   9.471  20.850   3.748  0.0459 -0.3663 -0.0242
    1CHOL   ROH15793  24.517  29.017   4.102 -0.0418 -0.1787 -0.1188
    1CHOL    R115794  24.544  29.233   4.283 -0.0511 -0.2254 -0.0619
    1CHOL    R215795  24.587  29.196   4.554  0.0261 -0.2945 -0.0839
    1CHOL    R315796  24.800  29.358   4.510 -0.0260 -0.2268 -0.0893
    1CHOL    R415797  24.671  29.468   4.749  0.0204 -0.3469 -0.0074
    1CHOL    R515798  24.721  29.577   4.566 -0.0615 -0.2663  0.0170
    1CHOL    C115799  24.920  29.780   4.821 -0.0317 -0.3138  0.0320
    1CHOL    C215800  24.831  30.152   4.960  0.0310 -0.3137  0.0250
    1CHOL   ROH15801  20.813  11.806   6.088  0.0594 -0.1169  0.0872
    1CHOL    R115802  20.744  11.858   5.819 -0.0211 -0.1560  0.0997
    1CHOL    R215803  20.884  12.038   5.662 -0.2526  0.0466  0.1216
    1CHOL    R315804  20.905  11.825   5.494  0.0043  0.0997  0.0841
    1CHOL    R415805  20.856  12.055   5.318 -0.5571  0.0431  0.1432
    1CHOL    R515806  20.743  11.868   5.323 -0.2173 -0.1715  0.2157
    1CHOL    C115807  20.861  11.865   4.960 -0.4932  0.0909  0.1206
    1CHOL    C215808  20.888  11.704   4.624  0.1618 -0.0573  0.1927
    1CHOL   ROH15809  11.406  11.191   7.071 -0.0675  0.0427  0.1243
    1CHOL    R115810  11.360  11.275   6.805  0.1088  0.0259  0.0875
    1CHOL    R215811  11.436  11.123   6.586  0.0030 -0.1220  0.1488
    1CHOL    R315812  11.175  11.151   6.517  0.0522  0.1606  0.0671
    1CHOL    R415813  11.302  11.036   6.280 -0.0890 -0.4470  0.2763
    1CHOL    R515814  11.181  11.217   6.287  0.1857 -0.2425 -0.0498
    1CHOL    C115815  10.979  11.013   6.036 -0.0963 -0.3711  0.2739
    1CHOL    C215816  10.782  11.166   5.672 -0.0108 -0.2208  0.0666
    1CHOL   ROH15817   2.563  17.308   2.258  0.0342 -0.3547  0.1228
    1CHOL    R115818   2.637  17.394   2.518  0.3891 -0.3686  0.0317
    1CHOL    R215819   2.457  17.410   2.726  0.4417  0.5064  0.0520
    1CHOL    R315820   2.639  17.252   2.853 -0.1086 -0.0733  0.1679
    1CHOL    R415821   2.518  17.412   3.067  0.5170  0.6147  0.0379
    1CHOL    R515822   2.730  17.392   3.024  0.4613 -0.2321  0.0095
    1CHOL    C115823   2.723  17.265   3.384  0.0443  0.1335  0.1385
    1CHOL    C215824   2.616  16.955   3.646 -0.1162  0.2216 -0.0710
    1CHOL   ROH15825  13.434  18.603   6.200 -0.0343  0.0643  0.0024
    1CHOL    R115826  13.353  18.689   5.942 -0.0390  0.0315 -0.0082
    1CHOL    R215827  13.520  18.831   5.773 -0.0746  0.0991  0.0083
    1CHOL    R315828  13.459  18.631   5.599  0.0259  0.0723  0.0053
    1CHOL    R415829  13.562  18.847   5.430  0.0918  0.0570  0.0273
    1CHOL    R515830  13.372  18.744   5.407  0.1119  0.0399 -0.0518
    1CHOL    C115831  13.530  18.668   5.068  0.2829  0.0075  0.0355
    1CHOL    C215832  13.452  18.856   4.754  0.0702  0.0458  0.4844
    1CHOL   ROH15833  17.527   9.302   6.582  0.0217  0.2312  0.0903
    1CHOL    R115834  17.443   9.341   6.315 -0.0335  0.1207  0.0908
    1CHOL    R215835  17.610   9.446   6.121 -0.1091  0.1488  0.0403
    1CHOL    R315836  17.543   9.220   5.986 -0.0201  0.0805  0.1098
    1CHOL    R415837  17.660   9.395   5.783  0.1074 -0.0217  0.0961
    1CHOL    R515838  17.465   9.297   5.773  0.1147 -0.0278  0.0202
    1CHOL    C115839  17.626   9.152   5.460  0.3173 -0.1852  0.1938
    1CHOL    C215840  17.671   9.321   5.272 -0.2291  0.3153  0.0310
    1CHOL   ROH15841  19.427  17.674   6.199  0.1317 -0.2067  0.0165
    1CHOL    R115842  19.497  17.668   5.925  0.0608 -0.1640 -0.0023
    1CHOL    R215843  19.346  17.536   5.735 -0.0208 -0.0825  0.0073
    1CHOL    R315844  19.348  17.778   5.611  0.0103 -0.0554  0.0588
    1CHOL    R415845  19.436  17.587   5.406 -0.0736 -0.0316 -0.0001
    1CHOL    R515846  19.540  17.769   5.468 -0.0194 -0.0687  0.0191
    1CHOL    C115847  19.491  17.844   5.097 -0.0753  0.0233  0.0440
    1CHOL    C215848  19.669  17.569   4.974 -0.0921 -0.0452 -0.0095
    1CHOL   ROH15849  21.724  17.978   2.886 -0.1062 -0.2179 -0.0451
    1CHOL    R115850  21.921  17.894   3.072 -0.1766 -0.1076  0.0782
    1CHOL    R215851  22.139  18.051   3.138 -0.1242 -0.1363 -0.0571
    1CHOL    R315852  22.049  18.011   3.392 -0.1758  0.1762 -0.0208
    1CHOL    R415853  22.335  18.065   3.422 -0.0829 -0.2042 -0.0798
    1CHOL    R515854  22.226  17.893   3.500 -0.3300 -0.0023  0.0540
    1CHOL    C115855  22.365  18.037   3.826 -0.1073  0.0495 -0.0590
    1CHOL    C215856  22.402  18.144   4.253  0.1466  0.4591 -0.2659
    1CHOL   ROH15857  13.583  16.823   6.291 -0.0859  0.1390 -0.0261
    1CHOL    R115858  13.512  16.870   6.022 -0.0326  0.1838 -0.0326
    1CHOL    R215859  13.694  16.957   5.833  0.0232  0.1402 -0.0007
    1CHOL    R315860  13.608  16.739   5.696 -0.0288  0.1782 -0.0288
    1CHOL    R415861  13.728  16.913   5.492  0.2106  0.0764  0.0250
    1CHOL    R515862  13.527  16.828   5.488  0.1585  0.2037 -0.0916
    1CHOL    C115863  13.667  16.683   5.164  0.2710  0.0748  0.0137
    1CHOL    C215864  14.002  16.887   4.861 -0.0878 -0.1127  0.0212
    1CHOL   ROH15865  10.392   8.062   6.925 -0.4571 -0.0503 -0.1858
    1CHOL    R115866  10.420   7.861   6.728 -0.2715 -0.0665 -0.1456
    1CHOL    R215867  10.448   7.918   6.459 -0.1997 -0.0922 -0.1481
    1CHOL    R315868  10.671   7.765   6.482 -0.1231  0.0352 -0.0337
    1CHOL    R415869  10.586   7.731   6.204 -0.0537 -0.1528 -0.0254
    1CHOL    R515870  10.625   7.572   6.348  0.0053 -0.0572  0.0582
    1CHOL    C115871  10.876   7.477   6.077  0.1031 -0.0686  0.1535
    1CHOL    C215872  10.978   7.413   5.743 -0.3045  0.2556  0.1236
    1CHOL   ROH15873  23.425   8.444   5.539 -0.0292 -0.3098  0.1364
    1CHOL    R115874  23.398   8.438   5.258 -0.2129 -0.1088  0.1467
    1CHOL    R215875  23.586   8.319   5.093 -0.1570  0.2809 -0.0849
    1CHOL    R315876  23.370   8.183   5.000 -0.0381  0.0629 -0.0460
    1CHOL    R415877  23.511   8.272   4.759 -0.2147  0.2829 -0.0721
    1CHOL    R515878  23.301   8.306   4.806 -0.2393  0.0372  0.0071
    1CHOL    C115879  23.265   8.116   4.477 -0.1365  0.0793 -0.0281
    1CHOL    C215880  23.219   8.302   4.134 -0.1560  0.3407  0.1095
    1CHOL   ROH15881  19.081  22.487   3.184  0.0542  0.0452  0.2112
    1CHOL    R115882  19.104  22.482   3.466  0.0612 -0.0201  0.2099
    1CHOL    R215883  18.931  22.620   3.632  0.0909 -0.0222  0.2462
    1CHOL    R315884  18.897  22.376   3.746  0.0481 -0.0413  0.1913
    1CHOL    R415885  18.830  22.566   3.959  0.0494 -0.0825  0.2232
    1CHOL    R515886  18.974  22.403   3.971  0.0258 -0.1013  0.2043
    1CHOL    C115887  18.739  22.305   4.255 -0.0149 -0.1359  0.1582
    1CHOL    C215888  18.634  22.623   4.488 -0.2951  0.1697 -0.2052
    1CHOL   ROH15889  22.538  13.325   2.876 -0.0734 -0.3494 -0.0365
    1CHOL    R115890  22.675  13.222   3.102 -0.0093 -0.1859 -0.0004
    1CHOL    R215891  22.717  13.372   3.331 -0.0926 -0.0770 -0.0588
    1CHOL    R315892  22.597  13.160   3.452  0.0352 -0.1025  0.0257
    1CHOL    R415893  22.778  13.270   3.655 -0.1166  0.1719  0.0259
    1CHOL    R515894  22.771  13.063   3.587  0.0735  0.1184  0.1449
    1CHOL    C115895  22.702  13.012   3.958 -0.0107  0.2929  0.1546
    1CHOL    C215896  22.960  12.897   4.105 -0.1560  0.1323  0.2781
    1CHOL   ROH15897  13.488  18.558   2.739 -0.1390  0.0258 -0.0396
    1CHOL    R115898  13.323  18.481   2.955 -0.0025 -0.1517  0.0029
    1CHOL    R215899  13.402  18.295   3.143  0.3281  0.0754  0.0932
    1CHOL    R315900  13.341  18.493   3.319 -0.0114  0.0626 -0.0009
    1CHOL    R415901  13.363  18.250   3.483  0.2233  0.1319  0.0896
    1CHOL    R515902  13.194  18.389   3.477  0.0418 -0.0806 -0.0385
    1CHOL    C115903  13.283  18.410   3.847 -0.1565  0.1528 -0.0009
    1CHOL    C215904  13.179  18.244   4.195  0.3489 -0.0117 -0.0171
    1CHOL   ROH15905  10.122  20.028   5.785  0.1163 -0.1538  0.0673
    1CHOL    R115906  10.041  19.896   5.548  0.0454 -0.1884  0.1098
    1CHOL    R215907  10.147  19.956   5.300 -0.2666  0.0108  0.0170
    1CHOL    R315908  10.200  19.690   5.293  0.0541  0.0728 -0.0993
    1CHOL    R415909  10.193  19.772   5.012 -0.4166  0.1217 -0.0794
    1CHOL    R515910  10.078  19.610   5.102 -0.1011 -0.0392  0.0449
    1CHOL    C115911  10.270  19.414   4.837 -0.2030  0.2446 -0.2446
    1CHOL    C215912   9.991  19.395   4.621 -0.1221  0.2147  0.0939
    1CHOL   ROH15913  13.799   8.274   3.963 -0.0303 -0.0268  0.1114
    1CHOL    R115914  13.889   8.390   4.205 -0.0389 -0.2991  0.2480
    1CHOL    R215915  13.818   8.646   4.282  0.4078 -0.1793  0.2567
    1CHOL    R315916  13.735   8.520   4.508 -0.0924 -0.0909  0.1376
    1CHOL    R415917  13.767   8.799   4.588  0.5703 -0.1695  0.2807
    1CHOL    R515918  13.857   8.626   4.685  0.0675 -0.4679  0.2779
    1CHOL    C115919  13.660   8.769   4.978  0.1954 -0.0808  0.1829
    1CHOL    C215920  13.743   8.625   5.285  0.0628  0.0166  0.0248
    1CHOL   ROH15921   8.393  11.245   4.095 -0.2036 -0.0716  0.0230
    1CHOL    R115922   8.467  11.170   4.357 -0.2040 -0.0649  0.0254
    1CHOL    R215923   8.578  11.348   4.537  0.0643 -0.1248 -0.0721
    1CHOL    R315924   8.374  11.265   4.696  0.0146  0.1680  0.0224
    1CHOL    R415925   8.592  11.329   4.882  0.1224  0.0336 -0.0651
    1CHOL    R515926   8.481  11.141   4.871 -0.0759  0.1438  0.0577
    1CHOL    C115927   8.407  11.241   5.232  0.1094  0.4005  0.0277
    1CHOL    C215928   8.323  10.822   5.328 -0.1000 -0.2051 -0.0451
    1CHOL   ROH15929  19.114  10.677   6.289 -0.1313 -0.2582 -0.0274
    1CHOL    R115930  19.171  10.690   6.012 -0.2499 -0.0169 -0.0442
    1CHOL    R215931  19.208  10.464   5.857  0.1497  0.1144 -0.1638
    1CHOL    R315932  19.013  10.576   5.704 -0.1378 -0.1963 -0.0347
    1CHOL    R415933  19.199  10.455   5.512  0.2622  0.6190 -0.1860
    1CHOL    R515934  19.130  10.662   5.514 -0.3279  0.4336  0.1168
    1CHOL    C115935  19.011  10.555   5.167  0.0575  0.6212 -0.0779
    1CHOL    C215936  18.992  10.742   4.909 -0.0548 -0.1408 -0.1811
    1CHOL   ROH15937   8.386  13.749   6.116  0.0833  0.0992  0.0049
    1CHOL    R115938   8.282  13.693   5.859  0.0943  0.0032  0.0208
    1CHOL    R215939   8.012  13.705   5.801  0.0958 -0.0288  0.0073
    1CHOL    R315940   8.094  13.874   5.605  0.0950 -0.0950 -0.0501
    1CHOL    R415941   7.864  13.732   5.490  0.0230 -0.0509  0.0399
    1CHOL    R515942   8.063  13.749   5.403  0.0052 -0.1289 -0.0156
    1CHOL    C115943   7.854  13.907   5.125 -0.0201 -0.1260  0.0050
    1CHOL    C215944   7.562  14.009   4.905  0.0842 -0.1562 -0.2497
    1CHOL   ROH15945  22.834  20.106   5.681  0.0364 -0.3146 -0.1774
    1CHOL    R115946  22.798  20.241   5.435  0.0037 -0.1746 -0.0974
    1CHOL    R215947  22.984  20.419   5.335  0.0245 -0.1696 -0.0567
    1CHOL    R315948  22.971  20.259   5.116 -0.0799 -0.0535 -0.1357
    1CHOL    R415949  22.987  20.531   5.008  0.1427 -0.0149 -0.0029
    1CHOL    R515950  22.836  20.382   4.960  0.0311  0.1265 -0.0905
    1CHOL    C115951  22.977  20.447   4.612  0.1136  0.1845 -0.0458
    1CHOL    C215952  22.835  20.374   4.283  0.4199  0.0233 -0.0439
    1CHOL   ROH15953   9.641  28.590   4.053  0.1471  0.1793 -0.0280
    1CHOL    R115954   9.559  28.424   4.267 -0.1952  0.2125 -0.1302
    1CHOL    R215955   9.728  28.355   4.475 -0.3360 -0.2638 -0.1776
    1CHOL    R315956   9.528  28.456   4.629 -0.1305  0.0511 -0.1062
    1CHOL    R415957   9.682  28.287   4.811 -0.3650 -0.2930 -0.1863
    1CHOL    R515958   9.467  28.277   4.775 -0.4099  0.0952 -0.1470
    1CHOL    C115959   9.467  28.343   5.150 -0.1891 -0.0143 -0.1244
    1CHOL    C215960   9.358  28.231   5.488  0.0870  0.2819  0.2403
    1CHOL   ROH15961  22.008   2.820   3.452  0.1056  0.0840  0.1822
    1CHOL    R115962  22.076   2.756   3.719 -0.0104 -0.0266  0.1870
    1CHOL    R215963  21.917   2.827   3.934 -0.1094 -0.1216  0.1500
    1CHOL    R315964  21.931   2.561   3.990 -0.1261 -0.1454  0.0392
    1CHOL    R415965  21.792   2.678   4.220 -0.0088 -0.2209  0.1425
    1CHOL    R515966  21.969   2.551   4.226 -0.0280 -0.2487  0.0171
    1CHOL    C115967  21.732   2.342   4.438  0.0342 -0.3010  0.0342
    1CHOL    C215968  21.648   2.037   4.708  0.1023 -0.0846  0.0229
    1CHOL   ROH15969  14.065  10.943   6.917  0.3077 -0.0424  0.0443
    1CHOL    R115970  13.979  11.088   6.689  0.1931 -0.0692  0.0699
    1CHOL    R215971  14.125  11.096   6.454  0.1070 -0.0447  0.0166
    1CHOL    R315972  13.891  11.010   6.344  0.0859 -0.1006  0.1039
    1CHOL    R415973  14.067  11.063   6.115 -0.0735  0.1163  0.0301
    1CHOL    R515974  13.866  11.143   6.147 -0.0967 -0.0018  0.1915
    1CHOL    C115975  13.814  10.963   5.815 -0.1983  0.1577  0.1199
    1CHOL    C215976  13.994  10.996   5.555  0.0047  0.1309 -0.0182
    1CHOL   ROH15977  17.819  21.310   6.314 -0.0075  0.2112  0.0055
    1CHOL    R115978  17.798  21.305   6.032 -0.0186  0.2832  0.0041
    1CHOL    R215979  17.773  21.534   5.880  0.0840  0.3316  0.0537
    1CHOL    R315980  17.990  21.433   5.751  0.0342  0.2569  0.0291
    1CHOL    R415981  17.850  21.591   5.548  0.0700  0.3009  0.0457
    1CHOL    R515982  17.910  21.382   5.531 -0.0044  0.2830  0.0397
    1CHOL    C115983  18.098  21.529   5.233  0.0149  0.2129  0.0179
    1CHOL    C215984  18.053  21.495   4.874 -0.3825  0.0314  0.0921
    1CHOL   ROH15985  26.815   7.054   5.556  0.3872  0.0618  0.0134
    1CHOL    R115986  26.964   6.960   5.335  0.2901 -0.0490 -0.0041
    1CHOL    R215987  26.946   6.699   5.244  0.0836 -0.0315 -0.0016
    1CHOL    R315988  26.890   6.820   5.006  0.1498  0.0069  0.0010
    1CHOL    R415989  27.017   6.566   4.933 -0.1814 -0.1724 -0.0052
    1CHOL    R515990  27.077   6.765   4.867  0.0435 -0.2467 -0.0536
    1CHOL    C115991  27.006   6.601   4.529 -0.2738 -0.2183 -0.0050
    1CHOL    C215992  27.176   6.276   4.318  0.0682 -0.0846  0.0482
    1CHOL   ROH15993   7.753  14.628   6.261 -0.1081 -0.0874 -0.0055
    1CHOL    R115994   7.837  14.832   6.084 -0.1001 -0.0840  0.0031
    1CHOL    R215995   8.015  14.786   5.878 -0.0323 -0.0639  0.0572
    1CHOL    R315996   7.818  14.896   5.726 -0.0130 -0.1156 -0.0066
    1CHOL    R415997   8.028  14.821   5.534 -0.0343 -0.2641  0.0347
    1CHOL    R515998   7.935  15.018   5.556  0.0039 -0.2357 -0.0800
    1CHOL    C115999   7.850  14.944   5.191 -0.0174 -0.4291 -0.0384
    1CHOL    C216000   8.122  15.106   4.905 -0.1536 -0.1431  0.1341
    1CHOL   ROH16001  17.607  22.680   6.329  0.0915 -0.1346 -0.0477
    1CHOL    R116002  17.641  22.775   6.064 -0.0235 -0.1318 -0.0621
    1CHOL    R216003  17.883  22.762   5.932 -0.0234  0.0785 -0.0843
    1CHOL    R316004  17.736  22.633   5.743  0.0764 -0.0804 -0.0562
    1CHOL    R416005  17.983  22.710   5.605 -0.0213  0.1777 -0.0993
    1CHOL    R516006  17.779  22.755   5.541 -0.0826 -0.0354 -0.0660
    1CHOL    C116007  17.902  22.560   5.237  0.0738  0.0864 -0.0817
    1CHOL    C216008  17.791  22.377   4.805  0.3702 -0.0120 -0.1868
    1CHOL   ROH16009  10.775  17.479   6.120  0.0774 -0.0075 -0.0072
    1CHOL    R116010  10.678  17.589   5.878 -0.0039 -0.0177  0.0209
    1CHOL    R216011  10.834  17.609   5.651 -0.0602  0.0365 -0.0096
    1CHOL    R316012  10.628  17.473   5.536 -0.0499 -0.0075  0.0229
    1CHOL    R416013  10.789  17.570   5.310 -0.0776  0.0010 -0.0034
    1CHOL    R516014  10.575  17.601   5.341 -0.0845 -0.0292  0.0141
    1CHOL    C116015  10.569  17.420   5.005 -0.0781 -0.0611  0.0309
    1CHOL    C216016  10.711  17.429   4.648  0.3257  0.2826 -0.2361
    1CHOL   ROH16017   8.485  18.982   5.341  0.2671 -0.0466  0.2777
    1CHOL    R116018   8.407  18.809   5.132  0.4535  0.0770  0.1014
    1CHOL    R216019   8.541  18.575   5.074  0.3393 -0.0340  0.2734
    1CHOL    R316020   8.295  18.464   5.102  0.1802  0.1841 -0.1627
    1CHOL    R416021   8.450  18.265   4.951  0.3756 -0.0811  0.3629
    1CHOL    R516022   8.257  18.351   4.894  0.5557  0.0194 -0.1485
    1CHOL    C116023   8.166  17.980   4.905  0.2473  0.0967  0.0057
    1CHOL    C216024   8.191  17.573   4.991  0.2124  0.0242 -0.3669
    1CHOL   ROH16025  22.441  15.147   5.683 -0.0697 -0.1245  0.1081
    1CHOL    R116026  22.289  15.195   5.449 -0.0454 -0.0423  0.1075
    1CHOL    R216027  22.323  15.421   5.293  0.0570 -0.0441  0.1190
    1CHOL    R316028  22.357  15.238   5.094 -0.0176 -0.0497  0.1129
    1CHOL    R416029  22.276  15.484   4.956  0.2865  0.0442  0.1030
    1CHOL    R516030  22.183  15.288   4.937  0.1092  0.1367  0.0313
    1CHOL    C116031  22.281  15.350   4.574  0.3498  0.0905  0.0879
    1CHOL    C216032  22.196  15.447   4.266  0.0213  0.0978  0.0514
    1CHOL   ROH16033  14.798  20.195   6.542 -0.0392  0.0390  0.1409
    1CHOL    R116034  14.806  20.346   6.304 -0.0633  0.1043  0.1830
    1CHOL    R216035  15.043  20.422   6.184 -0.0797 -0.0046  0.0961
    1CHOL    R316036  14.934  20.302   5.966 -0.2538  0.1304  0.1042
    1CHOL    R416037  15.136  20.486   5.857 -0.0460 -0.0880  0.0877
    1CHOL    R516038  14.925  20.475   5.801 -0.0749  0.1594  0.1162
    1CHOL    C116039  15.088  20.410   5.462 -0.1899 -0.0101  0.0905
    1CHOL    C216040  15.352  20.589   5.230  0.0605  0.1151 -0.0162
    1CHOL   ROH16041  12.447  19.345   2.880 -0.0850 -0.3201  0.1952
    1CHOL    R116042  12.429  19.214   3.131  0.1028 -0.2273  0.2592
    1CHOL    R216043  12.629  19.230   3.322  0.0850  0.1493  0.2541
    1CHOL    R316044  12.425  19.313   3.481 -0.0359 -0.0631  0.2124
    1CHOL    R416045  12.630  19.222   3.667  0.1071  0.3359  0.2591
    1CHOL    R516046  12.423  19.157   3.662  0.1972  0.0279  0.2963
    1CHOL    C116047  12.439  19.295   4.018  0.0065  0.2455  0.2228
    1CHOL    C216048  12.197  19.355   4.373  0.1153 -0.1287 -0.0377
    1CHOL   ROH16049  13.577  17.371   2.985 -0.1099 -0.2566  0.0047
    1CHOL    R116050  13.471  17.371   3.247  0.1000 -0.0773  0.0917
    1CHOL    R216051  13.365  17.145   3.365 -0.1367  0.0876  0.1929
    1CHOL    R316052  13.544  17.202   3.561  0.1074 -0.1562  0.0500
    1CHOL    R416053  13.332  17.051   3.696 -0.0546  0.1979  0.2329
    1CHOL    R516054  13.409  17.247   3.754  0.3060  0.0993  0.1428
    1CHOL    C116055  13.481  17.052   4.073  0.2225  0.0332  0.1220
    1CHOL    C216056  13.333  16.928   4.540  0.0700 -0.1196 -0.1457
    1CHOL   ROH16057  11.437   2.246   7.072  0.0524 -0.0015 -0.0123
    1CHOL    R116058  11.417   2.101   6.830  0.1519  0.0037 -0.0246
    1CHOL    R216059  11.226   2.156   6.639  0.0770 -0.1458  0.0015
    1CHOL    R316060  11.441   2.175   6.474  0.0443  0.0631 -0.0190
    1CHOL    R416061  11.220   2.098   6.298  0.1265 -0.2504  0.0184
    1CHOL    R516062  11.412   1.996   6.317  0.2478 -0.0164  0.0342
    1CHOL    C116063  11.419   2.082   5.945  0.1248 -0.1153  0.0090
    1CHOL    C216064  11.602   2.210   5.558  0.3386 -0.3095  0.2046
    1CHOL   ROH16065  19.324  21.263   5.933  0.0655 -0.0184 -0.0586
    1CHOL    R116066  19.215  21.270   5.673  0.0770  0.0459 -0.0618
    1CHOL    R216067  18.999  21.429   5.606  0.0055 -0.0256 -0.0018
    1CHOL    R316068  19.166  21.520   5.412 -0.0259  0.1404  0.0465
    1CHOL    R416069  18.900  21.608   5.328 -0.0994 -0.1751 -0.0620
    1CHOL    R516070  19.042  21.493   5.209  0.0766 -0.0300  0.0043
    1CHOL    C116071  18.999  21.797   4.983 -0.1903 -0.1062 -0.0519
    1CHOL    C216072  18.806  21.921   4.610 -0.1214  0.2104  0.0118
    1CHOL   ROH16073   9.508  22.746   2.700 -0.0516  0.1490  0.0525
    1CHOL    R116074   9.341  22.667   2.915 -0.1820  0.2950  0.0062
    1CHOL    R216075   9.438  22.627   3.171 -0.2373 -0.0378 -0.0241
    1CHOL    R316076   9.243  22.804   3.237  0.0657  0.2594  0.0999
    1CHOL    R416077   9.313  22.673   3.490 -0.1751 -0.0728  0.0058
    1CHOL    R516078   9.113  22.691   3.404 -0.1468  0.3477  0.0017
    1CHOL    C116079   9.058  22.866   3.738  0.1456  0.1859  0.1396
    1CHOL    C216080   9.130  22.863   4.058  0.1415 -0.0793 -0.1798
    1CHOL   ROH16081  18.454  16.480   2.608  0.0759  0.0695 -0.0583
    1CHOL    R116082  18.559  16.503   2.870  0.0253  0.0304 -0.0360
    1CHOL    R216083  18.504  16.719   3.035 -0.0824 -0.0452  0.0157
    1CHOL    R316084  18.426  16.524   3.208 -0.0329 -0.1240 -0.0464
    1CHOL    R416085  18.562  16.722   3.376 -0.2215 -0.0509  0.0414
    1CHOL    R516086  18.605  16.509   3.366 -0.0801 -0.0301  0.0255
    1CHOL    C116087  18.521  16.541   3.736 -0.2561 -0.1286 -0.0020
    1CHOL    C216088  18.776  16.813   3.856  0.1526  0.1259 -0.0209
    1CHOL   ROH16089  20.502  18.801   2.858  0.1698 -0.0081 -0.0823
    1CHOL    R116090  20.609  18.760   3.117  0.2258 -0.0912 -0.1187
    1CHOL    R216091  20.751  18.954   3.253  0.0697 -0.0600 -0.0012
    1CHOL    R316092  20.568  18.907   3.447  0.1251 -0.3480 -0.0132
    1CHOL    R416093  20.803  19.009   3.590 -0.1096  0.2623 -0.0216
    1CHOL    R516094  20.696  18.823   3.631  0.2836  0.0406  0.0658
    1CHOL    C116095  20.661  18.997   3.969 -0.1618  0.1796 -0.0448
    1CHOL    C216096  20.976  18.898   4.097  0.0590 -0.2134 -0.0468
    1CHOL   ROH16097  28.094  15.689   4.755  0.1174 -0.1565  0.1066
    1CHOL    R116098  28.063  15.665   4.475 -0.0799 -0.1315  0.1248
    1CHOL    R216099  28.275  15.614   4.305 -0.1398  0.2182 -0.0664
    1CHOL    R316100  28.119  15.407   4.224  0.0899  0.0076  0.0178
    1CHOL    R416101  28.348  15.404   4.041 -0.0761  0.4140 -0.2064
    1CHOL    R516102  28.137  15.409   3.985 -0.1424  0.1171 -0.0008
    1CHOL    C116103  28.244  15.087   3.811  0.1766  0.3303 -0.2090
    1CHOL    C216104  28.125  15.012   3.484 -0.1343 -0.0353  0.1973
    1CHOL   ROH16105  20.974  14.225   2.660  0.0836 -0.1419 -0.0728
    1CHOL    R116106  20.976  14.404   2.879 -0.0073  0.0268 -0.2077
    1CHOL    R216107  20.953  14.319   3.141 -0.2601  0.2401 -0.1611
    1CHOL    R316108  21.183  14.459   3.173 -0.2177  0.1538 -0.0791
    1CHOL    R416109  21.111  14.370   3.444 -0.4398  0.3090 -0.0764
    1CHOL    R516110  21.154  14.574   3.381 -0.3080  0.2658 -0.1492
    1CHOL    C116111  21.420  14.531   3.650 -0.5047  0.2682  0.0499
    1CHOL    C216112  21.446  14.858   3.852 -0.2739  0.0725  0.0420
    1CHOL   ROH16113   2.018   7.196   5.780 -0.0154  0.1393 -0.1946
    1CHOL    R116114   2.211   7.072   5.614  0.1954  0.2932 -0.0705
    1CHOL    R216115   2.141   6.911   5.400  0.4523 -0.1489  0.1617
    1CHOL    R316116   2.302   7.081   5.262  0.0785 -0.0016 -0.1118
    1CHOL    R416117   2.294   6.838   5.098  0.4707 -0.2254  0.1889
    1CHOL    R516118   2.472   6.940   5.170  0.3131  0.2057 -0.0045
    1CHOL    C116119   2.534   6.955   4.793  0.1304 -0.1317 -0.0520
    1CHOL    C216120   2.483   6.680   4.542  0.0583  0.0375 -0.1657
    1CHOL   ROH16121  15.615   7.992   3.773 -0.0012 -0.1098 -0.0377
    1CHOL    R116122  15.555   8.121   4.018 -0.0732 -0.1724 -0.0224
    1CHOL    R216123  15.572   7.993   4.262  0.2117 -0.1329 -0.0209
    1CHOL    R316124  15.734   8.202   4.325 -0.0477  0.0994 -0.1055
    1CHOL    R416125  15.713   8.048   4.573  0.2924  0.0639 -0.0902
    1CHOL    R516126  15.672   8.260   4.548 -0.0206  0.0125 -0.0731
    1CHOL    C116127  15.947   8.276   4.812  0.0959  0.3964 -0.2100
    1CHOL    C216128  16.081   8.163   5.197  0.1890 -0.2605  0.1155
    1CHOL   ROH16129  10.653  12.913   3.381  0.0661  0.0561 -0.2011
    1CHOL    R116130  10.705  12.861   3.654 -0.0202  0.0104 -0.1930
    1CHOL    R216131  10.935  12.947   3.781  0.0090 -0.1379 -0.1432
    1CHOL    R316132  10.758  13.058   3.955  0.0423 -0.0363 -0.1731
    1CHOL    R416133  11.007  13.036   4.107 -0.0288 -0.3071 -0.0881
    1CHOL    R516134  10.812  12.959   4.166 -0.1209 -0.1542 -0.1841
    1CHOL    C116135  10.883  13.191   4.461 -0.0197 -0.3104 -0.0841
    1CHOL    C216136  10.865  13.258   4.766 -0.2563 -0.1077 -0.1758
    1CHOL   ROH16137  15.409  13.035   3.013 -0.0474  0.2819 -0.1836
    1CHOL    R116138  15.490  12.995   3.281 -0.0220  0.1596 -0.2089
    1CHOL    R216139  15.609  13.194   3.431 -0.0653  0.1103 -0.1097
    1CHOL    R316140  15.409  13.137   3.606 -0.0404 -0.0346 -0.1269
    1CHOL    R416141  15.648  13.162   3.773 -0.0579  0.0700 -0.1142
    1CHOL    R516142  15.510  12.994   3.768  0.0362 -0.0080 -0.1497
    1CHOL    C116143  15.482  13.090   4.136 -0.0301 -0.0896 -0.1329
    1CHOL    C216144  15.526  12.974   4.586  0.0447 -0.1062 -0.2248
    1CHOL   ROH16145  20.714  18.735   6.038 -0.3564 -0.2147  0.0212
    1CHOL    R116146  20.791  18.633   5.786 -0.2116 -0.2077  0.0645
    1CHOL    R216147  20.613  18.604   5.577 -0.0582 -0.0820 -0.0686
    1CHOL    R316148  20.797  18.753   5.442  0.1191 -0.1566  0.0805
    1CHOL    R416149  20.626  18.636   5.233 -0.0812  0.2801 -0.0412
    1CHOL    R516150  20.844  18.624   5.245 -0.0772 -0.0136 -0.0769
    1CHOL    C116151  20.806  18.795   4.906  0.0718  0.4211  0.1148
    1CHOL    C216152  20.798  18.715   4.494 -0.0727 -0.0660  0.0924
    1CHOL   ROH16153  14.238  15.194   2.895 -0.2817 -0.2008  0.2322
    1CHOL    R116154  14.158  15.421   3.043 -0.2168 -0.1965  0.2604
    1CHOL    R216155  14.006  15.402   3.273  0.0481 -0.2028  0.4371
    1CHOL    R316156  14.208  15.548   3.381  0.1055 -0.0802  0.1735
    1CHOL    R416157  13.968  15.636   3.525  0.1810  0.0223  0.2527
    1CHOL    R516158  14.111  15.764   3.421  0.1034 -0.0521  0.0396
    1CHOL    C116159  14.136  15.909   3.773  0.3123  0.2684 -0.1022
    1CHOL    C216160  14.071  16.279   3.950 -0.2568  0.3096 -0.0054
    1CHOL   ROH16161   0.957  28.607   3.917  0.0446  0.4205 -0.1113
    1CHOL    R116162   0.942  28.777   4.143 -0.0135  0.2470  0.0174
    1CHOL    R216163   0.762  28.735   4.349 -0.1011  0.1145 -0.0823
    1CHOL    R316164   0.987  28.743   4.503 -0.1572 -0.0434  0.0102
    1CHOL    R416165   0.769  28.820   4.684 -0.1725  0.1072 -0.0786
    1CHOL    R516166   0.953  28.931   4.647 -0.0806 -0.0222 -0.0026
    1CHOL    C116167   0.984  28.877   5.023 -0.2666 -0.0454  0.0103
    1CHOL    C216168   1.099  29.201   5.279  0.0843  0.0044  0.0872
    1CHOL   ROH16169  11.155  17.429   2.686  0.0191 -0.0313  0.0452
    1CHOL    R116170  11.084  17.570   2.921 -0.2859 -0.1437  0.0263
    1CHOL    R216171  10.889  17.481   3.095 -0.0483 -0.5897  0.0827
    1CHOL    R316172  11.088  17.505   3.279 -0.0588 -0.0629  0.0393
    1CHOL    R416173  10.841  17.506   3.437 -0.0376 -0.4589  0.0747
    1CHOL    R516174  11.000  17.655   3.443 -0.3351 -0.1283 -0.0474
    1CHOL    C116175  11.000  17.544   3.808 -0.0412  0.1121  0.0294
    1CHOL    C216176  10.975  17.557   4.169 -0.0837  0.0666  0.1070
    1CHOL   ROH16177  21.759  20.387   2.859 -0.2878  0.1736  0.2627
    1CHOL    R116178  21.740  20.190   3.062  0.0949 -0.1217  0.0253
    1CHOL    R216179  21.962  20.087   3.190  0.2967  0.3368  0.0648
    1CHOL    R316180  21.828  20.164   3.414 -0.0953 -0.2752  0.0626
    1CHOL    R416181  22.056  20.007   3.513  0.5514  0.5943  0.0587
    1CHOL    R516182  21.846  19.975   3.561  0.6370 -0.2855 -0.0033
    1CHOL    C116183  21.986  20.032   3.911  0.3316  0.1697  0.0532
    1CHOL    C216184  21.797  20.176   4.245  0.0487 -0.2635  0.4061
    1CHOL   ROH16185  11.469   7.432   7.265 -0.2432 -0.0407  0.0726
    1CHOL    R116186  11.394   7.319   7.016 -0.1670  0.0842 -0.0087
    1CHOL    R216187  11.497   7.407   6.776 -0.0082  0.1322  0.0733
    1CHOL    R316188  11.561   7.145   6.743 -0.1025  0.1171  0.0104
    1CHOL    R416189  11.682   7.281   6.512 -0.0398  0.1292  0.0532
    1CHOL    R516190  11.547   7.110   6.507 -0.1012  0.1813  0.0019
    1CHOL    C116191  11.850   6.961   6.329 -0.1466  0.1132 -0.0176
    1CHOL    C216192  11.936   6.754   6.051 -0.2499  0.0694  0.2651
    1CHOL   ROH16193  28.505  24.695   2.880 -0.0903 -0.1994  0.0770
    1CHOL    R116194  28.776  24.666   2.957 -0.0262  0.0623 -0.0355
    1CHOL    R216195  28.948  24.880   2.980 -0.2882  0.2641  0.1376
    1CHOL    R316196  28.988  24.781   3.230 -0.0950  0.0469  0.0237
    1CHOL    R416197  29.233  24.931   3.169 -0.2783  0.3746  0.0932
    1CHOL    R516198  29.221  24.723   3.234 -0.0299  0.2925 -0.1159
    1CHOL    C116199  29.436  24.867   3.514 -0.0912  0.2349 -0.0396
    1CHOL    C216200  29.532  24.838   3.864  0.1218 -0.2053  0.1437
    1CHOL   ROH16201  11.325  15.342   6.678 -0.1930  0.0386 -0.2183
    1CHOL    R116202  11.397  15.220   6.433 -0.2004 -0.0563 -0.1719
    1CHOL    R216203  11.236  15.033   6.308 -0.2640 -0.0000 -0.1571
    1CHOL    R316204  11.258  15.203   6.097 -0.1309 -0.0696 -0.2027
    1CHOL    R416205  11.223  14.938   5.976 -0.3307 -0.0930 -0.1298
    1CHOL    R516206  11.383  15.080   5.934 -0.2152 -0.2188 -0.1663
    1CHOL    C116207  11.236  15.043   5.584 -0.2445 -0.2123 -0.1566
    1CHOL    C216208  11.364  14.982   5.300 -0.0885  0.0006 -0.1048
    1CHOL   ROH16209   2.818  16.396   5.108 -0.2999  0.1305 -0.0787
    1CHOL    R116210   2.875  16.308   4.845 -0.1385  0.0112 -0.0050
    1CHOL    R216211   2.842  16.046   4.766 -0.2484  0.0087  0.0495
    1CHOL    R316212   2.690  16.158   4.570 -0.0106  0.0517 -0.1146
    1CHOL    R416213   2.766  15.895   4.464 -0.4041 -0.1950  0.1883
    1CHOL    R516214   2.795  16.087   4.366 -0.0600 -0.3396 -0.0128
    1CHOL    C116215   2.579  15.912   4.105 -0.2715 -0.2734  0.1151
    1CHOL    C216216   2.704  15.504   4.000 -0.0054 -0.2858 -0.2029
    1CHOL   ROH16217  16.129   5.820   6.459 -0.0275 -0.0637  0.1218
    1CHOL    R116218  16.044   5.876   6.195  0.0559  0.0809  0.1238
    1CHOL    R216219  16.165   6.067   6.036  0.2375  0.0284  0.1941
    1CHOL    R316220  16.189   5.860   5.861  0.0936  0.0550  0.1419
    1CHOL    R416221  16.229   6.100   5.698  0.0918  0.0695  0.1696
    1CHOL    R516222  16.086   5.940   5.660  0.0263  0.1225  0.2043
    1CHOL    C116223  16.289   5.925   5.337 -0.1278  0.1185  0.1064
    1CHOL    C216224  16.182   5.616   5.091  0.2623 -0.2587 -0.2041
    1CHOL   ROH16225  27.119  21.239   3.245 -0.0666 -0.2019  0.0836
    1CHOL    R116226  26.959  21.221   3.478 -0.0365  0.0107  0.1222
    1CHOL    R216227  27.024  21.059   3.691 -0.2109 -0.0953  0.0938
    1CHOL    R316228  26.999  21.290   3.833  0.1477 -0.0657  0.1176
    1CHOL    R416229  26.909  21.080   4.016 -0.3505  0.0584  0.0361
    1CHOL    R516230  26.799  21.260   3.961  0.0129  0.2836  0.0041
    1CHOL    C116231  26.819  21.309   4.338 -0.0952  0.1755  0.0248
    1CHOL    C216232  26.592  21.185   4.672 -0.2612 -0.3854 -0.0232
    1CHOL   ROH16233  18.194  13.987   2.729 -0.0132 -0.0345 -0.0955
    1CHOL    R116234  18.285  14.036   2.992 -0.0292 -0.0496 -0.0873
    1CHOL    R216235  18.113  14.070   3.206 -0.0412 -0.0615 -0.0973
    1CHOL    R316236  18.260  13.870   3.316 -0.0485 -0.0674 -0.0970
    1CHOL    R416237  18.165  14.027   3.544 -0.0636 -0.0706 -0.0951
    1CHOL    R516238  18.371  13.974   3.501 -0.0586 -0.0713 -0.0862
    1CHOL    C116239  18.333  13.814   3.845 -0.0834 -0.0815 -0.0935
    1CHOL    C216240  18.499  13.812   4.182  0.1633  0.1394  0.0527
    1CHOL   ROH16241  19.349  13.332   2.840  0.2180  0.3060  0.0845
    1CHOL    R116242  19.209  13.378   3.082  0.1251  0.1639  0.0599
    1CHOL    R216243  19.131  13.174   3.250  0.1479  0.0698 -0.0395
    1CHOL    R316244  19.267  13.318   3.436  0.0385  0.0522  0.0548
    1CHOL    R416245  19.128  13.111   3.590  0.1753 -0.1345 -0.0761
    1CHOL    R516246  19.119  13.326   3.625  0.0253 -0.1619  0.0533
    1CHOL    C116247  19.254  13.209   3.962  0.0887 -0.2702 -0.0089
    1CHOL    C216248  19.489  13.230   4.229  0.0526  0.0816  0.0226
    1CHOL   ROH16249  16.591  18.311   2.894  0.1033 -0.3280  0.0093
    1CHOL    R116250  16.713  18.388   3.138  0.1567 -0.2692 -0.0344
    1CHOL    R216251  16.568  18.435   3.368  0.1692  0.1011 -0.0885
    1CHOL    R316252  16.738  18.252   3.475 -0.0674 -0.0244  0.0816
    1CHOL    R416253  16.643  18.410   3.704  0.0065  0.1783 -0.0455
    1CHOL    R516254  16.851  18.372   3.650 -0.0153 -0.0664  0.0671
    1CHOL    C116255  16.847  18.223   4.001 -0.3102  0.1055  0.1393
    1CHOL    C216256  16.688  18.480   4.266 -0.2545  0.1893 -0.1187
    1CHOL   ROH16257   3.438  20.242   4.320 -0.1199  0.2410  0.1458
    1CHOL    R116258   3.264  20.262   4.098 -0.0127  0.1796  0.0551
    1CHOL    R216259   3.354  20.257   3.837  0.1063  0.0225  0.0972
    1CHOL    R316260   3.175  20.055   3.812  0.0598  0.0611  0.1179
    1CHOL    R416261   3.323  20.054   3.559 -0.0028  0.0608  0.0809
    1CHOL    R516262   3.107  20.063   3.583  0.0046  0.1014  0.1356
    1CHOL    C116263   3.137  19.745   3.374 -0.1099  0.1195  0.0907
    1CHOL    C216264   3.010  19.482   3.101  0.1171 -0.1011  0.0850
    1CHOL   ROH16265   9.686  12.743   6.733  0.0996 -0.1117 -0.0971
    1CHOL    R116266   9.640  12.610   6.487  0.0804 -0.0710 -0.1143
    1CHOL    R216267   9.708  12.722   6.243  0.0938 -0.0484 -0.0938
    1CHOL    R316268   9.843  12.488   6.211  0.0599 -0.0640 -0.1349
    1CHOL    R416269   9.810  12.593   5.940 -0.0166 -0.0503 -0.1316
    1CHOL    R516270   9.754  12.394   6.010 -0.0184 -0.0505 -0.1126
    1CHOL    C116271   9.997  12.299   5.732 -0.1129 -0.0661 -0.1922
    1CHOL    C216272  10.212  12.095   5.731  0.0388  0.0127  0.0117
    1CHOL   ROH16273   2.140  25.909   5.628  0.0065  0.0515 -0.1274
    1CHOL    R116274   2.205  25.856   5.358 -0.0713  0.1024 -0.1551
    1CHOL    R216275   2.186  26.048   5.160  0.0184  0.1802 -0.0825
    1CHOL    R316276   2.445  25.981   5.114 -0.0308  0.0310 -0.1540
    1CHOL    R416277   2.352  26.101   4.862  0.0318  0.3169 -0.0525
    1CHOL    R516278   2.446  25.905   4.886 -0.1055  0.2216 -0.2235
    1CHOL    C116279   2.693  26.069   4.645 -0.0066  0.2565 -0.1021
    1CHOL    C216280   2.642  26.319   4.348  0.1087 -0.2480 -0.2301
    1CHOL   ROH16281  19.763  13.363   2.569  0.1658  0.0233 -0.0798
    1CHOL    R116282  19.825  13.410   2.840  0.1304 -0.0804 -0.0533
    1CHOL    R216283  19.680  13.584   2.999  0.2524  0.0382 -0.0728
    1CHOL    R316284  19.659  13.368   3.161 -0.0099  0.0320 -0.1092
    1CHOL    R416285  19.671  13.596   3.344  0.2515 -0.0037 -0.0711
    1CHOL    R516286  19.799  13.420   3.349  0.0474 -0.1593 -0.0938
    1CHOL    C116287  19.646  13.400   3.698  0.0047 -0.0339 -0.1043
    1CHOL    C216288  19.692  13.596   3.970 -0.3848  0.0248 -0.1022
    1CHOL   ROH16289  17.077  16.688   2.433 -0.0355 -0.2161  0.0322
    1CHOL    R116290  17.119  16.519   2.657 -0.0675 -0.1413  0.0952
    1CHOL    R216291  17.360  16.511   2.793 -0.0470 -0.1841  0.0580
    1CHOL    R316292  17.203  16.563   3.008  0.0099 -0.0286  0.0630
    1CHOL    R416293  17.452  16.463   3.123 -0.1235 -0.3799  0.0520
    1CHOL    R516294  17.252  16.388   3.163 -0.2246 -0.1305  0.0250
    1CHOL    C116295  17.357  16.484   3.517 -0.1148 -0.3483  0.0532
    1CHOL    C216296  17.631  16.325   3.598  0.2796  0.1786 -0.1039
    1CHOL   ROH16297   5.245   8.212   4.271 -0.1028  0.0942  0.1138
    1CHOL    R116298   5.128   8.234   4.528 -0.0950  0.0534  0.1205
    1CHOL    R216299   4.916   8.403   4.581 -0.0766  0.0610  0.1587
    1CHOL    R316300   4.800   8.176   4.675 -0.0971  0.0540  0.1179
    1CHOL    R416301   4.651   8.394   4.802 -0.0817  0.0505  0.1524
    1CHOL    R516302   4.747   8.226   4.903 -0.0961  0.0233  0.1271
    1CHOL    C116303   4.387   8.176   5.019 -0.1038  0.0379  0.1106
    1CHOL    C216304   4.062   8.029   5.164  0.0241 -0.1294  0.1178
    1CHOL   ROH16305  19.769  11.823   6.206 -0.3309 -0.0016  0.1069
    1CHOL    R116306  19.834  11.922   5.949 -0.0080 -0.1172  0.1395
    1CHOL    R216307  19.959  11.767   5.757 -0.1931 -0.3550  0.2067
    1CHOL    R316308  19.747  11.842   5.605  0.0190  0.0480  0.0930
    1CHOL    R416309  19.936  11.721   5.416 -0.1379 -0.4008  0.2089
    1CHOL    R516310  19.845  11.919   5.400  0.2743 -0.2068  0.1131
    1CHOL    C116311  19.723  11.763   5.073  0.0933 -0.0492  0.1035
    1CHOL    C216312  19.845  11.591   4.751  0.0185  0.0742 -0.1405
    1CHOL   ROH16313  26.051  20.455   3.612  0.0883 -0.0271  0.2941
    1CHOL    R116314  26.027  20.242   3.796  0.0757 -0.0591  0.2553
    1CHOL    R216315  25.919  19.997   3.727  0.0629 -0.0405  0.2102
    1CHOL    R316316  26.154  19.902   3.825  0.0571 -0.0714  0.1948
    1CHOL    R416317  25.984  19.665   3.797  0.0090 -0.0438  0.2466
    1CHOL    R516318  26.090  19.728   3.976  0.0424 -0.0394  0.2259
    1CHOL    C116319  26.243  19.382   3.928 -0.0280 -0.0750  0.2534
    1CHOL    C216320  26.120  19.021   3.890  0.1065 -0.3011 -0.0381
    1CHOL   ROH16321  15.497  18.829   2.951 -0.2460 -0.1567  0.1793
    1CHOL    R116322  15.401  18.764   3.210 -0.0963 -0.2589  0.2108
    1CHOL    R216323  15.485  18.539   3.347  0.1257 -0.2183  0.1537
    1CHOL    R316324  15.545  18.720   3.541  0.0716 -0.1930  0.1465
    1CHOL    R416325  15.492  18.470   3.686 -0.1091 -0.1268  0.1792
    1CHOL    R516326  15.398  18.663   3.722 -0.0579 -0.0873  0.0711
    1CHOL    C116327  15.552  18.599   4.065 -0.2965 -0.0500  0.1872
    1CHOL    C216328  15.520  18.376   4.492 -0.3938 -0.0654  0.3533
    1CHOL   ROH16329  17.111  14.792   6.359  0.2155  0.0011 -0.0228
    1CHOL    R116330  17.128  14.800   6.077  0.2652 -0.0149 -0.0196
    1CHOL    R216331  17.349  14.710   5.938  0.0856 -0.5069  0.0022
    1CHOL    R316332  17.165  14.558   5.807 -0.2482 -0.0902 -0.0344
    1CHOL    R416333  17.340  14.659   5.596 -0.1609 -0.2260 -0.0372
    1CHOL    R516334  17.123  14.677   5.604 -0.1384  0.1489  0.0743
    1CHOL    C116335  17.161  14.488   5.275 -0.6175  0.3289 -0.0946
    1CHOL    C216336  17.331  14.663   5.002 -0.2086  0.0769 -0.2399
    1CHOL   ROH16337  13.477  10.804   3.611  0.1071 -0.0290  0.0183
    1CHOL    R116338  13.583  11.006   3.779 -0.0531  0.0422  0.0367
    1CHOL    R216339  13.450  11.098   4.004 -0.0662 -0.1830  0.1252
    1CHOL    R316340  13.683  11.033   4.128  0.0650  0.0440  0.0029
    1CHOL    R416341  13.541  11.200   4.321  0.0981  0.0789 -0.0032
    1CHOL    R516342  13.744  11.231   4.249  0.0284  0.1611 -0.1673
    1CHOL    C116343  13.813  11.199   4.622  0.3170  0.4444 -0.1928
    1CHOL    C216344  13.862  11.218   5.023 -0.0304 -0.1792 -0.0880
    1CHOL   ROH16345   2.831   3.513   4.715 -0.0391 -0.1793 -0.0917
    1CHOL    R116346   2.676   3.375   4.908  0.0170  0.0032  0.0872
    1CHOL    R216347   2.458   3.490   5.033 -0.0699  0.0553 -0.1095
    1CHOL    R316348   2.330   3.269   4.941  0.0754 -0.1592  0.1895
    1CHOL    R416349   2.124   3.418   5.083 -0.0859  0.0402 -0.2345
    1CHOL    R516350   2.178   3.210   5.116 -0.0382  0.1081  0.1849
    1CHOL    C116351   1.809   3.168   5.027  0.0413 -0.1699 -0.0266
    1CHOL    C216352   1.573   2.886   5.218 -0.0692  0.3308 -0.1310
    1CHOL   ROH16353   4.909   4.550   6.373  0.0490  0.0827  0.0613
    1CHOL    R116354   5.114   4.628   6.194  0.0413 -0.1010 -0.0301
    1CHOL    R216355   5.154   4.506   5.949 -0.2763 -0.0399 -0.1150
    1CHOL    R316356   5.133   4.760   5.855 -0.0033  0.0369  0.0197
    1CHOL    R416357   5.220   4.601   5.624 -0.4420  0.0075 -0.1360
    1CHOL    R516358   5.315   4.781   5.701 -0.1101 -0.1584 -0.1407
    1CHOL    C116359   5.238   4.896   5.346 -0.2823  0.1072 -0.0217
    1CHOL    C216360   5.437   4.820   5.109  0.3038  0.2170 -0.1644
    1CHOL   ROH16361  18.835  16.208   6.125 -0.0571 -0.2509 -0.1066
    1CHOL    R116362  18.909  16.202   5.852 -0.1536 -0.1884 -0.1359
    1CHOL    R216363  18.745  16.100   5.656 -0.2629 -0.0660 -0.1181
    1CHOL    R316364  18.784  16.343   5.541 -0.2144 -0.0395 -0.0430
    1CHOL    R416365  18.742  16.160   5.315  0.1416 -0.0202 -0.1174
    1CHOL    R516366  18.911  16.295   5.343  0.0511  0.0398  0.1090
    1CHOL    C116367  18.777  16.423   5.009  0.4226  0.0315 -0.0464
    1CHOL    C216368  18.735  16.549   4.605  0.0293 -0.2060 -0.2262
    1CHOL   ROH16369   9.818  17.145   6.182 -0.0155 -0.1750  0.0309
    1CHOL    R116370   9.789  16.957   5.972 -0.0173 -0.1008 -0.0366
    1CHOL    R216371   9.609  16.992   5.765 -0.0530 -0.0493  0.0010
    1CHOL    R316372   9.830  16.956   5.611 -0.0691  0.0428 -0.0435
    1CHOL    R416373   9.605  16.906   5.430 -0.0858  0.0897 -0.0344
    1CHOL    R516374   9.773  16.773   5.467 -0.0645  0.0960 -0.1124
    1CHOL    C116375   9.809  16.823   5.090 -0.1201  0.2573 -0.0967
    1CHOL    C216376   9.821  16.913   4.670  0.0200  0.2602  0.0587
    1CHOL   ROH16377  10.524  12.213   3.309 -0.0541  0.0309 -0.0704
    1CHOL    R116378  10.621  12.206   3.575 -0.1633 -0.0507 -0.0322
    1CHOL    R216379  10.768  12.412   3.686  0.0319 -0.2040 -0.0001
    1CHOL    R316380  10.577  12.402   3.878 -0.0560  0.0360 -0.0722
    1CHOL    R416381  10.817  12.493   4.018 -0.0101 -0.2017  0.0055
    1CHOL    R516382  10.691  12.324   4.073 -0.2163 -0.0575 -0.0142
    1CHOL    C116383  10.665  12.531   4.392 -0.1171  0.0249 -0.0589
    1CHOL    C216384  10.590  12.835   4.773 -0.2420 -0.2132 -0.0985
    1CHOL   ROH16385  11.482  19.165   2.926 -0.1075  0.0387  0.0338
    1CHOL    R116386  11.553  19.148   3.199 -0.0282 -0.1189  0.0050
    1CHOL    R216387  11.443  19.312   3.393  0.2782  0.0086  0.0823
    1CHOL    R316388  11.384  19.075   3.513 -0.0214  0.0649  0.0513
    1CHOL    R416389  11.427  19.262   3.734  0.1248 -0.0014  0.0738
    1CHOL    R516390  11.525  19.070   3.706 -0.0834 -0.1091  0.0906
    1CHOL    C116391  11.362  19.012   4.046 -0.2458  0.0455  0.0396
    1CHOL    C216392  11.265  18.901   4.405 -0.1076 -0.1644 -0.1939
    1CHOL   ROH16393  17.447  18.084   2.726 -0.0728  0.0039  0.1326
    1CHOL    R116394  17.482  17.915   2.950  0.0571 -0.0270  0.0898
    1CHOL    R216395  17.723  17.893   3.084  0.0560  0.1824  0.1277
    1CHOL    R316396  17.572  17.957   3.300 -0.0526 -0.0355  0.1198
    1CHOL    R416397  17.806  17.819   3.411  0.0201  0.0793  0.1142
    1CHOL    R516398  17.597  17.770   3.448  0.0437 -0.0932  0.0330
    1CHOL    C116399  17.712  17.837   3.805 -0.1026 -0.1852  0.0989
    1CHOL    C216400  17.779  17.870   4.147 -0.0667  0.0044 -0.1426
    1CHOL   ROH16401  16.595  17.873   6.370 -0.1313 -0.1218 -0.0813
    1CHOL    R116402  16.456  17.840   6.126 -0.2272  0.1149 -0.0620
    1CHOL    R216403  16.302  18.041   6.015  0.1484  0.4132 -0.0759
    1CHOL    R316404  16.459  17.997   5.797  0.0486  0.0687 -0.0833
    1CHOL    R416405  16.221  18.131   5.691  0.1225  0.1418 -0.1468
    1CHOL    R516406  16.305  17.942   5.623 -0.0448  0.0068  0.0205
    1CHOL    C116407  16.321  18.143   5.299  0.0137 -0.3396 -0.1949
    1CHOL    C216408  16.420  18.104   5.075 -0.1699 -0.1897 -0.0645
    1CHOL   ROH16409  17.692   7.143   6.002  0.3107 -0.2618 -0.1445
    1CHOL    R116410  17.504   7.142   5.789  0.2739 -0.1572 -0.1131
    1CHOL    R216411  17.452   6.917   5.638  0.1578 -0.1153 -0.1360
    1CHOL    R316412  17.195   6.968   5.711  0.1902 -0.0222 -0.0853
    1CHOL    R416413  17.172   6.777   5.490  0.0803 -0.0708 -0.0330
    1CHOL    R516414  17.074   6.971   5.504  0.1404 -0.0381 -0.0564
    1CHOL    C116415  16.768   6.744   5.472  0.0659  0.0426  0.0744
    1CHOL    C216416  16.487   6.490   5.504 -0.0064 -0.2247 -0.2624
    1DPPC   NC316417  17.487  18.543   1.903  0.0048  0.0123 -0.3907
    1DPPC   PO416418  17.683  18.217   2.210  0.3262 -0.2262  0.0108
    1DPPC   GL116419  17.935  18.068   2.501 -0.2834  0.0294 -0.2650
    1DPPC   GL216420  18.002  17.748   2.670 -0.0184 -0.2257 -0.5767
    1DPPC   C1A16421  18.151  18.188   2.879  0.0511 -0.3784  0.0052
    1DPPC   C2A16422  18.202  18.136   3.378 -0.0609  0.2158 -0.0548
    1DPPC   C3A16423  18.247  18.088   3.809  0.1258 -0.1733  0.1679
    1DPPC   C4A16424  18.271  18.082   4.291 -0.0193 -0.1711 -0.2184
    1DPPC   C1B16425  18.230  17.704   3.084  0.1326  0.4856  0.1225
    1DPPC   C2B16426  18.209  17.531   3.498  0.0972 -0.0814  0.0616
    1DPPC   C3B16427  18.134  17.583   3.936  0.0303  0.0164  0.1411
    1DPPC   C4B16428  18.005  17.535   4.384 -0.1342  0.1499 -0.0797
    1DPPC   NC316429  14.096  10.899   2.258 -0.0866 -0.1953 -0.1960
    1DPPC   PO416430  14.459  10.820   2.652  0.0305 -0.0464  0.0788
    1DPPC   GL116431  14.595  10.883   3.170  0.0539  0.3016 -0.1778
    1DPPC   GL216432  14.964  10.987   3.281  0.0190 -0.1827  0.2171
    1DPPC   C1A16433  14.550  10.772   3.613  0.0779 -0.2033  0.0114
    1DPPC   C2A16434  14.680  10.863   4.040  0.1011  0.1167 -0.1667
    1DPPC   C3A16435  14.797  10.915   4.488 -0.0168 -0.3582 -0.1210
    1DPPC   C4A16436  15.045  10.818   4.771  0.0934  0.1770  0.0548
    1DPPC   C1B16437  15.054  10.988   3.674 -0.0932 -0.0173  0.1020
    1DPPC   C2B16438  15.164  10.982   4.091 -0.1877  0.3304  0.0160
    1DPPC   C3B16439  15.464  10.841   4.391  0.3459 -0.1286  0.0151
    1DPPC   C4B16440  15.625  10.886   4.748  0.0135  0.0071  0.0207
    1DPPC   NC316441   1.981  17.587   1.535 -0.1094 -0.1713  0.1717
    1DPPC   PO416442   2.164  17.401   1.879 -0.1305  0.0091  0.1453
    1DPPC   GL116443   2.029  17.163   2.268  0.1866  0.4848  0.0752
    1DPPC   GL216444   2.248  16.914   2.262 -0.4072  0.2048  0.2815
    1DPPC   C1A16445   2.002  17.274   2.745  0.1422 -0.1812  0.0733
    1DPPC   C2A16446   1.755  17.264   3.135  0.1672 -0.0021  0.3173
    1DPPC   C3A16447   1.802  17.468   3.505  0.0362  0.1460 -0.2126
    1DPPC   C4A16448   1.910  17.943   3.496 -0.1876 -0.4840 -0.1242
    1DPPC   C1B16449   2.339  16.894   2.680 -0.1684  0.1863  0.1237
    1DPPC   C2B16450   2.199  16.999   3.123 -0.0376 -0.1093 -0.0736
    1DPPC   C3B16451   1.870  16.944   3.540  0.0444 -0.0031 -0.0020
    1DPPC   C4B16452   1.656  16.808   3.887  0.0600  0.0901 -0.1175
    1DPPC   NC316453  16.808  18.573   2.425 -0.2672 -0.1255 -0.1429
    1DPPC   PO416454  17.183  18.382   2.351 -0.0047  0.2268 -0.3517
    1DPPC   GL116455  17.169  18.483   2.847 -0.0369 -0.0172 -0.0330
    1DPPC   GL216456  17.035  18.856   2.897  0.3198  0.0990  0.1981
    1DPPC   C1A16457  17.294  18.411   3.284 -0.1088 -0.0378  0.4206
    1DPPC   C2A16458  17.349  18.515   3.741 -0.1484 -0.0383 -0.1997
    1DPPC   C3A16459  17.261  18.515   4.278  0.0826  0.0671  0.1909
    1DPPC   C4A16460  17.367  18.815   4.582  0.1576  0.3914 -0.1267
    1DPPC   C1B16461  16.976  18.803   3.255 -0.1095 -0.1055 -0.0285
    1DPPC   C2B16462  16.998  18.831   3.599 -0.1124  0.0333  0.2195
    1DPPC   C3B16463  16.971  18.774   3.958  0.1715  0.4061  0.1255
    1DPPC   C4B16464  16.934  18.940   4.354  0.2993  0.0761 -0.2987
    1DPPC   NC316465  10.474  12.071   2.800 -0.0262  0.0073  0.3284
    1DPPC   PO416466  10.867  12.088   2.993  0.3474 -0.0738  0.2011
    1DPPC   GL116467  10.974  11.976   3.391 -0.2654  0.2160 -0.1225
    1DPPC   GL216468  10.905  11.710   3.436  0.0808 -0.0711  0.1943
    1DPPC   C1A16469  10.989  11.990   3.866  0.1439 -0.0188  0.0968
    1DPPC   C2A16470  11.071  12.168   4.290  0.1747  0.0817  0.0598
    1DPPC   C3A16471  10.934  12.174   4.749 -0.1151  0.3070 -0.2766
    1DPPC   C4A16472  11.026  12.129   5.185  0.0082  0.0395 -0.0005
    1DPPC   C1B16473  10.511  11.703   3.638 -0.0484  0.0764 -0.1054
    1DPPC   C2B16474  10.324  11.868   3.940 -0.2805 -0.1789 -0.3007
    1DPPC   C3B16475  10.370  12.067   4.362  0.2020  0.0303  0.0049
    1DPPC   C4B16476  10.453  12.173   4.764 -0.0150 -0.1044 -0.1075
    1DPPC   NC316477  20.945  18.569   2.162 -0.1400  0.1174 -0.0818
    1DPPC   PO416478  20.878  18.917   2.553 -0.0326  0.2832  0.1075
    1DPPC   GL116479  20.981  18.992   2.863  0.1157 -0.0961  0.1114
    1DPPC   GL216480  20.967  19.351   2.938  0.1960  0.2276  0.0253
    1DPPC   C1A16481  21.254  19.035   3.231 -0.4664 -0.2018 -0.2079
    1DPPC   C2A16482  21.423  19.185   3.609  0.3746 -0.1737 -0.2030
    1DPPC   C3A16483  21.167  19.331   4.055 -0.4519 -0.2162 -0.2918
    1DPPC   C4A16484  21.239  19.518   4.472  0.1537 -0.0589  0.0020
    1DPPC   C1B16485  21.054  19.456   3.328  0.1716  0.1917  0.1525
    1DPPC   C2B16486  21.016  19.703   3.667  0.2407 -0.0994  0.0345
    1DPPC   C3B16487  20.861  19.717   4.149  0.0940  0.0611  0.1517
    1DPPC   C4B16488  20.692  19.800   4.505 -0.0648  0.0206  0.0220
    1DPPC   NC316489  14.415   9.908   2.296 -0.3527  0.0812  0.0048
    1DPPC   PO416490  14.780  10.134   2.351 -0.1857  0.1619  0.0444
    1DPPC   GL116491  14.783  10.261   2.855  0.1083  0.3910 -0.0039
    1DPPC   GL216492  14.969  10.092   3.003  0.1202  0.2194  0.2961
    1DPPC   C1A16493  14.770  10.450   3.296  0.1308 -0.2739  0.0646
    1DPPC   C2A16494  14.932  10.446   3.756  0.1058 -0.0013  0.2949
    1DPPC   C3A16495  15.051  10.465   4.179 -0.3740 -0.1602 -0.2156
    1DPPC   C4A16496  15.009  10.344   4.571  0.1443 -0.1394 -0.1377
    1DPPC   C1B16497  15.170  10.039   3.408  0.0654  0.2883 -0.1784
    1DPPC   C2B16498  15.282  10.109   3.813 -0.0596  0.2839 -0.0583
    1DPPC   C3B16499  15.472  10.199   4.151 -0.2197  0.2526  0.0372
    1DPPC   C4B16500  15.505  10.389   4.557  0.1655  0.3054 -0.1465
    1DPPC   NC316501  19.687  22.298   2.508 -0.3840 -0.1253 -0.6157
    1DPPC   PO416502  19.329  22.026   2.388 -0.0884 -0.1922  0.0660
    1DPPC   GL116503  19.381  22.100   2.943  0.1573 -0.0363  0.0643
    1DPPC   GL216504  19.099  22.003   3.002  0.0837 -0.3195  0.0235
    1DPPC   C1A16505  19.456  22.074   3.396  0.1709 -0.1096 -0.0547
    1DPPC   C2A16506  19.472  22.224   3.752  0.3385 -0.2520  0.1294
    1DPPC   C3A16507  19.531  22.299   4.206  0.1078 -0.2140  0.4080
    1DPPC   C4A16508  19.740  22.487   4.508  0.0477  0.1376  0.0780
    1DPPC   C1B16509  19.269  21.660   3.341  0.2043 -0.1216  0.0505
    1DPPC   C2B16510  19.390  21.482   3.724 -0.0003  0.1155  0.0932
    1DPPC   C3B16511  19.233  21.420   4.104 -0.2480  0.5293  0.0877
    1DPPC   C4B16512  19.061  21.462   4.556 -0.2254 -0.3257  0.1838
    1DPPC   NC316513  23.632  18.031   2.200  0.1596 -0.2386 -0.0837
    1DPPC   PO416514  23.183  17.967   2.283  0.2395  0.0124 -0.1278
    1DPPC   GL116515  23.367  17.753   2.534 -0.0001  0.1912 -0.0221
    1DPPC   GL216516  23.576  18.060   2.675  0.0517  0.0263 -0.1258
    1DPPC   C1A16517  23.670  17.615   2.822  0.3444  0.1071 -0.0412
    1DPPC   C2A16518  23.823  17.626   3.213  0.0076  0.1335 -0.0364
    1DPPC   C3A16519  23.812  17.652   3.666  0.3777 -0.0123  0.0704
    1DPPC   C4A16520  23.704  17.580   4.148  0.1360  0.0631 -0.2902
    1DPPC   C1B16521  23.532  18.160   3.080  0.2914  0.4333  0.0945
    1DPPC   C2B16522  23.524  17.984   3.461  0.0983 -0.2156 -0.0519
    1DPPC   C3B16523  23.395  18.034   3.771  0.2714  0.0223  0.2255
    1DPPC   C4B16524  23.383  18.081   4.188  0.1742 -0.0435  0.1014
    1DPPC   NC316525  13.888  15.244   2.514 -0.1969 -0.0705  0.1356
    1DPPC   PO416526  14.145  14.994   2.183  0.0127  0.1099  0.1427
    1DPPC   GL116527  14.191  14.802   2.573 -0.0168  0.1001  0.1388
    1DPPC   GL216528  13.881  14.768   2.826 -0.4040  0.0694 -0.0932
    1DPPC   C1A16529  14.493  14.674   2.971 -0.1148  0.2389 -0.1212
    1DPPC   C2A16530  14.571  14.682   3.445  0.1580 -0.2521  0.1153
    1DPPC   C3A16531  14.560  14.825   3.863  0.0501 -0.1751 -0.2698
    1DPPC   C4A16532  14.572  14.827   4.323 -0.0408 -0.1082 -0.0034
    1DPPC   C1B16533  14.120  14.922   3.236  0.0847  0.1387 -0.0529
    1DPPC   C2B16534  14.224  15.057   3.596 -0.0242 -0.0358 -0.2124
    1DPPC   C3B16535  14.087  15.371   3.923 -0.2281 -0.0700  0.4322
    1DPPC   C4B16536  14.102  15.665   4.223  0.0565 -0.0434 -0.0271
    1DPPC   NC316537  21.890  11.187   2.529 -0.0753 -0.1954  0.3951
    1DPPC   PO416538  21.839  11.603   2.337  0.0382 -0.1867 -0.1371
    1DPPC   GL116539  21.714  11.601   2.795  0.1287 -0.1031  0.2480
    1DPPC   GL216540  21.945  11.604   2.892 -0.2663  0.0914 -0.2031
    1DPPC   C1A16541  21.577  11.810   3.109  0.0108  0.1077 -0.3441
    1DPPC   C2A16542  21.603  11.821   3.425  0.0412  0.0368  0.0545
    1DPPC   C3A16543  21.838  11.833   3.808 -0.0142 -0.2144 -0.2104
    1DPPC   C4A16544  22.220  11.842   4.170  0.0121  0.0362  0.1119
    1DPPC   C1B16545  21.953  11.548   3.312 -0.1746  0.0578 -0.1332
    1DPPC   C2B16546  22.049  11.377   3.726 -0.1337 -0.1813 -0.3839
    1DPPC   C3B16547  22.118  11.285   4.128 -0.0148  0.3162 -0.0983
    1DPPC   C4B16548  21.865  11.097   4.493 -0.1396  0.1147  0.1864
    1DPPC   NC316549  11.840  21.234   2.581  0.0430 -0.4279  0.0253
    1DPPC   PO416550  12.075  20.912   2.510  0.0224 -0.0537  0.2402
    1DPPC   GL116551  12.084  20.958   2.954 -0.1732  0.4118 -0.0799
    1DPPC   GL216552  11.923  21.314   3.096  0.1112 -0.2960 -0.0822
    1DPPC   C1A16553  12.356  21.129   3.307 -0.2604 -0.1650 -0.2954
    1DPPC   C2A16554  12.631  21.199   3.702 -0.0436 -0.0814 -0.1154
    1DPPC   C3A16555  12.612  21.207   4.156 -0.1148  0.0765  0.1516
    1DPPC   C4A16556  12.452  21.038   4.497  0.1246  0.0141  0.1918
    1DPPC   C1B16557  11.923  21.306   3.490  0.1315 -0.0796 -0.2155
    1DPPC   C2B16558  11.718  21.307   3.928  0.2961  0.1084 -0.0241
    1DPPC   C3B16559  11.467  21.569   4.235 -0.0366  0.2213 -0.1280
    1DPPC   C4B16560  11.290  21.890   4.398 -0.1905  0.0226  0.1518
    1DPPC   NC316561  13.513   9.148   2.714 -0.0626  0.1628 -0.2306
    1DPPC   PO416562  13.954   9.286   2.940  0.1753  0.0684 -0.2500
    1DPPC   GL116563  14.017   9.567   3.306 -0.0239 -0.0490 -0.1854
    1DPPC   GL216564  13.729   9.561   3.457  0.3261 -0.3257  0.2572
    1DPPC   C1A16565  14.208   9.847   3.575  0.1047  0.2877 -0.0503
    1DPPC   C2A16566  14.379   9.868   3.974  0.1538 -0.3124  0.1324
    1DPPC   C3A16567  14.440   9.920   4.483  0.1036 -0.2486 -0.0636
    1DPPC   C4A16568  14.686  10.098   4.841 -0.0832  0.2421 -0.1418
    1DPPC   C1B16569  13.985   9.480   3.837  0.3186  0.0186 -0.0107
    1DPPC   C2B16570  14.031   9.644   4.260 -0.0138 -0.0881 -0.1204
    1DPPC   C3B16571  13.978   9.691   4.596 -0.0231  0.2125 -0.1923
    1DPPC   C4B16572  14.172   9.846   4.987  0.0524 -0.0092  0.2665
    1DPPC   NC316573  12.163  12.258   2.397  0.3827 -0.2353  0.1821
    1DPPC   PO416574  12.567  12.484   2.510  0.2072 -0.0909  0.0698
    1DPPC   GL116575  12.660  12.366   2.884 -0.1753  0.4643 -0.0264
    1DPPC   GL216576  12.559  12.654   3.059 -0.2066  0.0117 -0.1622
    1DPPC   C1A16577  12.977  12.226   3.320 -0.1359  0.0148  0.0760
    1DPPC   C2A16578  13.059  12.315   3.794 -0.0334  0.4277  0.1158
    1DPPC   C3A16579  13.071  12.480   4.219 -0.0724  0.2595  0.3741
    1DPPC   C4A16580  12.909  12.442   4.640  0.0133  0.2606 -0.0859
    1DPPC   C1B16581  12.736  12.715   3.478 -0.0190  0.2048 -0.1830
    1DPPC   C2B16582  12.737  12.744   3.925 -0.1060  0.0522  0.0593
    1DPPC   C3B16583  12.687  12.757   4.314  0.0008 -0.0178  0.1265
    1DPPC   C4B16584  12.672  12.958   4.736 -0.0253  0.0237 -0.0272
    1DPPC   NC316585  19.624  18.595   1.906 -0.1448  0.0806  0.2252
    1DPPC   PO416586  19.597  18.470   2.336 -0.1229 -0.1643 -0.2360
    1DPPC   GL116587  19.620  18.387   2.691 -0.0879  0.1789 -0.0396
    1DPPC   GL216588  19.703  17.986   2.719  0.1692 -0.0942  0.0819
    1DPPC   C1A16589  19.587  18.320   3.156 -0.3022  0.0607 -0.0627
    1DPPC   C2A16590  19.595  18.205   3.515 -0.0421 -0.2460  0.0596
    1DPPC   C3A16591  19.651  18.274   3.872  0.0661 -0.0093  0.5884
    1DPPC   C4A16592  19.531  18.193   4.192  0.2217  0.0485 -0.2467
    1DPPC   C1B16593  19.988  17.918   2.997 -0.1064 -0.0678 -0.2360
    1DPPC   C2B16594  20.022  17.982   3.390  0.0064 -0.0068  0.0749
    1DPPC   C3B16595  20.039  18.050   3.775  0.2047 -0.1457  0.1794
    1DPPC   C4B16596  20.122  18.286   4.105  0.2164  0.2670 -0.0281
    1DPPC   NC316597  19.332  19.994   2.404  0.1555 -0.2535 -0.2067
    1DPPC   PO416598  19.523  19.810   2.693  0.0647 -0.0123 -0.0774
    1DPPC   GL116599  19.592  19.657   3.043  0.3281  0.0085 -0.2689
    1DPPC   GL216600  19.484  19.724   3.342 -0.0040 -0.0128  0.0520
    1DPPC   C1A16601  19.679  19.254   3.309 -0.0131  0.0440  0.0582
    1DPPC   C2A16602  19.621  19.201   3.659 -0.0290  0.1092  0.1200
    1DPPC   C3A16603  19.556  19.286   4.103  0.1195 -0.0798  0.0118
    1DPPC   C4A16604  19.452  19.339   4.544  0.0808  0.0369  0.0466
    1DPPC   C1B16605  19.404  19.753   3.803  0.0855 -0.0562 -0.0319
    1DPPC   C2B16606  19.222  19.714   4.298 -0.2298 -0.1066 -0.0852
    1DPPC   C3B16607  19.086  19.758   4.617  0.2252  0.0928 -0.0420
    1DPPC   C4B16608  19.300  20.107   4.815 -0.1244  0.5711 -0.2126
    1DPPC   NC316609   9.082   9.424   3.518 -0.0656  0.1606  0.2256
    1DPPC   PO416610   8.975   9.718   3.961  0.1248 -0.3691  0.0383
    1DPPC   GL116611   9.057  10.003   4.258 -0.0669 -0.0472  0.0834
    1DPPC   GL216612   8.778  10.202   4.317 -0.4744 -0.1213 -0.2807
    1DPPC   C1A16613   9.061   9.921   4.659 -0.2410 -0.0514 -0.0715
    1DPPC   C2A16614   9.084  10.012   4.976 -0.3756 -0.0251 -0.0342
    1DPPC   C3A16615   9.118  10.198   5.429 -0.1983  0.1644 -0.0951
    1DPPC   C4A16616   9.168  10.332   5.773  0.0780 -0.1436  0.0999
    1DPPC   C1B16617   8.593  10.284   4.697  0.0063 -0.2658  0.2310
    1DPPC   C2B16618   8.696  10.339   5.098 -0.0683  0.2616  0.0574
    1DPPC   C3B16619   8.680  10.465   5.483 -0.0588  0.1510  0.0336
    1DPPC   C4B16620   8.650  10.286   5.895  0.0928  0.0911  0.1280
    1DPPC   NC316621  21.836  19.227   2.474  0.0508  0.0221 -0.2036
    1DPPC   PO416622  22.287  19.310   2.479 -0.0765  0.3541 -0.0775
    1DPPC   GL116623  22.486  19.241   2.797  0.1048 -0.0616 -0.0709
    1DPPC   GL216624  22.631  19.013   2.763 -0.1853  0.0052  0.0534
    1DPPC   C1A16625  22.655  19.482   3.097  0.1090  0.0384 -0.4073
    1DPPC   C2A16626  22.855  19.342   3.496 -0.2252  0.0009  0.1932
    1DPPC   C3A16627  23.201  19.376   3.834  0.0299 -0.0140 -0.2023
    1DPPC   C4A16628  23.213  19.502   4.255 -0.1419  0.1414 -0.2572
    1DPPC   C1B16629  22.798  18.969   3.129 -0.1250  0.0099 -0.1649
    1DPPC   C2B16630  22.842  18.855   3.438  0.1920  0.0089 -0.0388
    1DPPC   C3B16631  22.849  19.009   3.878  0.0773  0.1182 -0.0390
    1DPPC   C4B16632  23.051  19.023   4.341  0.1493 -0.2257  0.0897
    1DPPC   NC316633  11.307  12.431   2.907  0.3829 -0.0130 -0.0820
    1DPPC   PO416634  11.693  12.294   2.681 -0.0713 -0.1403 -0.1058
    1DPPC   GL116635  11.825  12.307   3.199  0.0108  0.2323  0.4750
    1DPPC   GL216636  12.148  12.510   3.324 -0.1620 -0.7320 -0.1699
    1DPPC   C1A16637  12.000  12.155   3.617 -0.1819 -0.1520 -0.1897
    1DPPC   C2A16638  12.012  12.227   4.100 -0.0893 -0.2642 -0.0402
    1DPPC   C3A16639  12.050  12.173   4.541 -0.1558  0.1029  0.0505
    1DPPC   C4A16640  11.932  12.266   4.917  0.2186  0.0821 -0.0564
    1DPPC   C1B16641  12.260  12.727   3.714  0.0918  0.0025  0.1219
    1DPPC   C2B16642  12.263  12.682   4.070  0.2345 -0.2776  0.2125
    1DPPC   C3B16643  12.229  12.695   4.470 -0.1213 -0.0187  0.0274
    1DPPC   C4B16644  12.141  12.891   4.839 -0.0843 -0.1552  0.1106
    1DPPC   NC316645  20.894   6.479   2.880 -0.2004 -0.1903 -0.4164
    1DPPC   PO416646  20.717   6.395   3.254  0.2375  0.2976  0.1032
    1DPPC   GL116647  20.716   6.321   3.705  0.1774  0.0887  0.2888
    1DPPC   GL216648  20.745   6.675   3.800 -0.1042 -0.3365  0.1697
    1DPPC   C1A16649  20.447   6.143   4.066 -0.1605 -0.3016 -0.0884
    1DPPC   C2A16650  20.370   6.296   4.529  0.2022 -0.1342 -0.1074
    1DPPC   C3A16651  20.463   6.602   4.857  0.1580 -0.0797 -0.1083
    1DPPC   C4A16652  20.818   6.779   5.085 -0.2217 -0.2369  0.2561
    1DPPC   C1B16653  20.758   6.553   4.180  0.1630  0.4900 -0.1718
    1DPPC   C2B16654  20.849   6.213   4.463  0.0025  0.0862  0.1271
    1DPPC   C3B16655  20.969   6.363   4.814 -0.3198 -0.0790 -0.1549
    1DPPC   C4B16656  21.048   6.286   5.176  0.0018  0.1223 -0.1853
    1DPPC   NC316657   4.876  22.993   1.451  0.0667  0.1943  0.0215
    1DPPC   PO416658   4.369  22.747   1.621 -0.0450  0.2695  0.1337
    1DPPC   GL116659   4.389  22.800   1.978 -0.0845  0.1502 -0.3531
    1DPPC   GL216660   4.236  23.134   2.095  0.0173 -0.0279  0.0114
    1DPPC   C1A16661   4.685  22.976   2.267  0.2267 -0.0199  0.4092
    1DPPC   C2A16662   4.815  23.026   2.682 -0.5057  0.0843 -0.0047
    1DPPC   C3A16663   5.186  22.890   2.851 -0.1632 -0.2671  0.0923
    1DPPC   C4A16664   5.481  23.225   3.150 -0.2349  0.0169 -0.0668
    1DPPC   C1B16665   4.146  23.249   2.504  0.3598 -0.3103 -0.0049
    1DPPC   C2B16666   4.067  23.349   2.966 -0.1108 -0.1552 -0.0462
    1DPPC   C3B16667   3.729  23.252   3.260  0.1789 -0.0527  0.0952
    1DPPC   C4B16668   3.583  23.791   3.374  0.0672  0.0629 -0.2440
    1DPPC   NC316669  24.941  19.182   2.153  0.0949 -0.1852  0.2409
    1DPPC   PO416670  24.586  18.922   2.052 -0.1087  0.0337 -0.2974
    1DPPC   GL116671  24.655  18.944   2.539  0.2445 -0.0220  0.1103
    1DPPC   GL216672  24.923  18.671   2.652  0.1352  0.3126 -0.2830
    1DPPC   C1A16673  24.680  19.061   2.955 -0.0110  0.3091  0.0514
    1DPPC   C2A16674  24.643  19.183   3.381 -0.0866 -0.0071  0.0515
    1DPPC   C3A16675  24.944  19.392   3.716 -0.1532  0.1086  0.2168
    1DPPC   C4A16676  25.154  19.678   4.053  0.4737  0.1185  0.0507
    1DPPC   C1B16677  24.831  18.602   3.052  0.1327 -0.2331 -0.1896
    1DPPC   C2B16678  24.859  18.554   3.516 -0.1229  0.1516 -0.0832
    1DPPC   C3B16679  25.163  18.726   3.769 -0.2911 -0.2721  0.1070
    1DPPC   C4B16680  25.250  19.147   4.052  0.0121 -0.1459  0.1302
    1DPPC   NC316681   9.432  17.081   2.247  0.2278  0.1713 -0.0042
    1DPPC   PO416682   9.150  17.179   2.576  0.1365  0.1696 -0.0640
    1DPPC   GL116683   9.417  17.352   2.745  0.1705 -0.4020  0.2317
    1DPPC   GL216684   9.778  17.287   2.693 -0.0113 -0.0257 -0.1239
    1DPPC   C1A16685   9.450  17.686   3.125 -0.0722 -0.2061 -0.0163
    1DPPC   C2A16686   9.289  17.767   3.554 -0.1431 -0.2275 -0.2661
    1DPPC   C3A16687   9.194  17.923   3.947 -0.0845 -0.1827 -0.0026
    1DPPC   C4A16688   9.206  17.813   4.439 -0.1694  0.2698 -0.1425
    1DPPC   C1B16689  10.185  17.428   2.921 -0.1886  0.1315 -0.4577
    1DPPC   C2B16690  10.230  17.360   3.379  0.0992 -0.1031 -0.1209
    1DPPC   C3B16691  10.267  16.881   3.580 -0.5349 -0.0254 -0.1041
    1DPPC   C4B16692  10.082  16.688   3.965 -0.1504  0.1774 -0.1103
    1DPPC   NC316693  16.820  14.817   1.537  0.0860  0.0325 -0.0343
    1DPPC   PO416694  16.688  14.547   1.927  0.0787  0.1030  0.3171
    1DPPC   GL116695  16.701  14.749   2.355 -0.1537 -0.2169 -0.0518
    1DPPC   GL216696  16.903  14.879   2.460  0.2070 -0.1000 -0.1073
    1DPPC   C1A16697  16.733  14.604   2.864  0.0970  0.0957 -0.1604
    1DPPC   C2A16698  16.797  14.681   3.225 -0.1669 -0.0285 -0.0174
    1DPPC   C3A16699  16.830  14.730   3.607 -0.1985 -0.0742  0.0977
    1DPPC   C4A16700  17.107  14.712   3.886  0.0782 -0.0050  0.0948
    1DPPC   C1B16701  16.927  15.035   2.870  0.2649  0.1515  0.3657
    1DPPC   C2B16702  17.035  15.079   3.313 -0.0563  0.1285  0.1666
    1DPPC   C3B16703  17.076  15.191   3.733 -0.0284 -0.2190  0.0142
    1DPPC   C4B16704  17.246  15.215   4.127  0.0123  0.3506  0.2154
    1DPPC   NC316705  15.781  19.526   2.217  0.1440  0.1353 -0.2027
    1DPPC   PO416706  15.391  19.548   2.299  0.1056 -0.2987  0.1104
    1DPPC   GL116707  15.425  19.376   2.747 -0.0195 -0.0782 -0.0037
    1DPPC   GL216708  15.186  19.259   2.933  0.1008  0.0260 -0.1044
    1DPPC   C1A16709  15.665  19.348   3.121 -0.0993 -0.0490 -0.4037
    1DPPC   C2A16710  15.749  19.364   3.525  0.3640  0.0989  0.1543
    1DPPC   C3A16711  15.664  19.402   3.905 -0.1635  0.3200 -0.1612
    1DPPC   C4A16712  15.637  19.550   4.416 -0.2294 -0.0396  0.0817
    1DPPC   C1B16713  15.233  19.222   3.306 -0.0442 -0.0577 -0.2250
    1DPPC   C2B16714  15.247  19.124   3.693 -0.0984 -0.2153  0.1493
    1DPPC   C3B16715  15.329  19.028   4.097  0.1483 -0.1731 -0.1208
    1DPPC   C4B16716  15.485  18.887   4.527  0.0003 -0.0552 -0.0244
    1DPPC   NC316717  12.427  11.012   3.283  0.2170 -0.2036  0.1866
    1DPPC   PO416718  12.828  11.161   3.093 -0.0522 -0.1240  0.0435
    1DPPC   GL116719  12.852  11.244   3.500 -0.0894 -0.4314  0.1891
    1DPPC   GL216720  13.168  11.293   3.495 -0.0195 -0.2336 -0.0424
    1DPPC   C1A16721  12.718  11.285   4.001  0.0931 -0.1856 -0.2163
    1DPPC   C2A16722  12.761  11.332   4.479 -0.1389 -0.1483 -0.0314
    1DPPC   C3A16723  12.794  11.436   4.836  0.0384  0.0319  0.2460
    1DPPC   C4A16724  13.120  11.551   5.150  0.1258 -0.2990  0.2885
    1DPPC   C1B16725  13.167  11.495   3.883 -0.0725  0.3063 -0.2030
    1DPPC   C2B16726  13.127  11.513   4.316  0.1180  0.0377  0.0105
    1DPPC   C3B16727  13.181  11.727   4.675  0.1599 -0.0221  0.1237
    1DPPC   C4B16728  13.359  12.087   4.879  0.2005  0.1506 -0.2552
    1DPPC   NC316729  14.027  19.594   1.963 -0.2030  0.2930  0.0801
    1DPPC   PO416730  13.835  19.502   2.382  0.0796  0.1026 -0.0876
    1DPPC   GL116731  13.747  19.333   2.832  0.0474  0.0775 -0.0774
    1DPPC   GL216732  13.476  19.015   2.898  0.0902  0.1478 -0.1101
    1DPPC   C1A16733  13.634  19.437   3.207 -0.2348 -0.0575  0.0237
    1DPPC   C2A16734  13.790  19.466   3.641  0.2074  0.0145 -0.0377
    1DPPC   C3A16735  13.577  19.277   4.084  0.3677 -0.0060 -0.0422
    1DPPC   C4A16736  13.510  19.289   4.521  0.4270  0.1741  0.0882
    1DPPC   C1B16737  13.530  18.978   3.342  0.0802  0.4190 -0.1869
    1DPPC   C2B16738  13.399  18.861   3.743  0.0904  0.0059  0.4786
    1DPPC   C3B16739  13.398  18.781   4.110 -0.1816  0.3296 -0.3200
    1DPPC   C4B16740  13.530  18.519   4.419 -0.0584  0.3117  0.2996
    1DPPC   NC316741  22.374  15.747   1.791 -0.1099  0.0554 -0.2336
    1DPPC   PO416742  22.069  15.358   1.850  0.1967 -0.0333 -0.0040
    1DPPC   GL116743  21.940  15.454   2.292  0.0510 -0.1231 -0.1169
    1DPPC   GL216744  22.218  15.768   2.411  0.0098  0.4171 -0.0950
    1DPPC   C1A16745  21.732  15.464   2.644 -0.2061 -0.2842  0.2455
    1DPPC   C2A16746  21.537  15.396   2.971  0.2683  0.1765  0.0511
    1DPPC   C3A16747  21.662  15.507   3.377 -0.1437  0.0370  0.0729
    1DPPC   C4A16748  21.781  15.793   3.652 -0.3119 -0.0244  0.0242
    1DPPC   C1B16749  22.244  15.427   2.673 -0.3158  0.1305 -0.1534
    1DPPC   C2B16750  22.354  15.294   3.077  0.0535  0.4224  0.1094
    1DPPC   C3B16751  22.537  14.936   3.191 -0.2523  0.0024  0.0143
    1DPPC   C4B16752  22.836  14.760   3.437  0.1973  0.0126 -0.0894
    1DPPC   NC316753  15.105  20.025   2.406 -0.3556  0.0323 -0.0633
    1DPPC   PO416754  15.377  20.368   2.355  0.2070  0.3292  0.0585
    1DPPC   GL116755  15.367  20.263   2.779 -0.3332  0.2257  0.1470
    1DPPC   GL216756  15.325  19.879   2.824  0.0907 -0.2655 -0.0311
    1DPPC   C1A16757  15.463  20.205   3.208 -0.1182  0.0920  0.0179
    1DPPC   C2A16758  15.411  20.129   3.607  0.0160 -0.1515  0.1158
    1DPPC   C3A16759  15.362  19.972   3.986 -0.0904 -0.0176 -0.0422
    1DPPC   C4A16760  15.317  19.912   4.389 -0.0442 -0.0540  0.1730
    1DPPC   C1B16761  15.313  19.705   3.232  0.0075 -0.1475 -0.1274
    1DPPC   C2B16762  15.251  19.601   3.672  0.1948 -0.3090  0.0609
    1DPPC   C3B16763  15.224  19.526   4.105  0.2916 -0.0155 -0.0272
    1DPPC   C4B16764  15.195  19.305   4.524 -0.0555 -0.0081  0.2713
    1DPPC   NC316765  29.921   8.203   2.757 -0.3473 -0.1781 -0.3394
    1DPPC   PO416766  30.334   7.975   2.770 -0.0240 -0.2992  0.2578
    1DPPC   GL116767  30.247   7.938   3.240  0.2652  0.1795  0.3814
    1DPPC   GL216768  30.421   7.757   3.465  0.1781 -0.0695  0.1572
    1DPPC   C1A16769  30.101   8.357   3.519 -0.1165  0.1790 -0.1017
    1DPPC   C2A16770  30.228   8.493   3.991 -0.0048 -0.0221  0.1462
    1DPPC   C3A16771  30.476   8.751   3.985 -0.0844 -0.2499 -0.2019
    1DPPC   C4A16772  30.630   9.193   4.105 -0.1269  0.1296  0.1554
    1DPPC   C1B16773  30.399   8.034   3.901 -0.1981 -0.0669 -0.1001
    1DPPC   C2B16774  30.632   8.207   4.306 -0.0880  0.2332  0.0811
    1DPPC   C3B16775  30.858   8.658   4.405 -0.1226  0.1071 -0.0481
    1DPPC   C4B16776  31.294   8.708   4.536  0.0673 -0.0499 -0.0935
    1DPPC   NC316777  13.320  10.911   3.143  0.0306 -0.0797 -0.0137
    1DPPC   PO416778  13.330  10.468   3.213  0.3081  0.0367  0.0593
    1DPPC   GL116779  13.617  10.328   3.440 -0.0617 -0.1614  0.0835
    1DPPC   GL216780  13.725  10.025   3.449 -0.0305 -0.2586  0.2141
    1DPPC   C1A16781  13.807  10.550   3.878  0.0910 -0.2939 -0.1866
    1DPPC   C2A16782  13.974  10.625   4.345  0.1651 -0.1302  0.0139
    1DPPC   C3A16783  14.105  10.757   4.745  0.3455 -0.0458 -0.1288
    1DPPC   C4A16784  14.002  10.751   5.128 -0.1429  0.0685 -0.0627
    1DPPC   C1B16785  13.883   9.982   3.905  0.0443 -0.0091 -0.1356
    1DPPC   C2B16786  13.890  10.156   4.244 -0.0250 -0.1465 -0.0491
    1DPPC   C3B16787  14.056  10.271   4.700 -0.2641 -0.0381  0.0187
    1DPPC   C4B16788  14.220  10.340   5.089  0.0139 -0.0941 -0.1374
    1DPPC   NC316789  14.226  19.170   2.588  0.1802  0.4126  0.1112
    1DPPC   PO416790  13.817  18.937   2.504 -0.1141 -0.0133 -0.1491
    1DPPC   GL116791  13.978  18.826   2.839  0.1242  0.1432 -0.3396
    1DPPC   GL216792  14.057  19.069   3.064 -0.0246  0.0883 -0.4445
    1DPPC   C1A16793  13.810  18.608   3.153  0.0548  0.1038 -0.2959
    1DPPC   C2A16794  13.785  18.583   3.584 -0.1452 -0.1205 -0.6077
    1DPPC   C3A16795  13.825  18.555   3.958  0.1024 -0.0412 -0.1490
    1DPPC   C4A16796  14.040  18.366   4.255 -0.0060  0.0101  0.0411
    1DPPC   C1B16797  14.005  19.099   3.460  0.0384  0.1180  0.1987
    1DPPC   C2B16798  13.889  19.038   3.869 -0.0488  0.3012  0.5288
    1DPPC   C3B16799  13.845  18.961   4.331  0.0551 -0.4795 -0.0828
    1DPPC   C4B16800  14.108  19.048   4.691 -0.0911  0.0549 -0.0228
    1DPPC   NC316801   8.584  20.661   2.537 -0.0518  0.2261 -0.2827
    1DPPC   PO416802   9.026  20.587   2.420 -0.0138  0.1993 -0.0051
    1DPPC   GL116803   8.896  20.420   2.815  0.1217 -0.0451  0.3073
    1DPPC   GL216804   8.854  20.638   2.989  0.0741  0.0834 -0.2201
    1DPPC   C1A16805   8.809  20.164   3.261  0.1200  0.0908  0.1493
    1DPPC   C2A16806   8.746  20.226   3.710  0.1241  0.0725  0.2240
    1DPPC   C3A16807   8.761  20.348   4.142 -0.0759 -0.1343  0.1642
    1DPPC   C4A16808   8.860  20.686   4.524  0.3254 -0.1102  0.1983
    1DPPC   C1B16809   8.992  20.580   3.375  0.4528 -0.0596 -0.0303
    1DPPC   C2B16810   9.005  20.596   3.782 -0.1893 -0.2393 -0.3991
    1DPPC   C3B16811   8.761  20.886   4.009  0.0684 -0.1950  0.2452
    1DPPC   C4B16812   8.841  21.211   4.247  0.2629  0.0955 -0.0174
    1DPPC   NC316813  18.670  13.021   2.284  0.0838 -0.1528 -0.2533
    1DPPC   PO416814  19.052  13.225   2.422  0.1054  0.2694  0.1248
    1DPPC   GL116815  18.976  12.949   2.707  0.2338 -0.0950 -0.0457
    1DPPC   GL216816  18.835  12.661   2.703  0.3135 -0.2553 -0.0735
    1DPPC   C1A16817  19.284  12.811   2.955  0.0294 -0.1767 -0.1281
    1DPPC   C2A16818  19.452  12.802   3.391 -0.0347  0.0459  0.0371
    1DPPC   C3A16819  19.456  12.815   3.804 -0.0725 -0.0953  0.1524
    1DPPC   C4A16820  19.407  12.754   4.258 -0.2084 -0.0396  0.2326
    1DPPC   C1B16821  18.853  12.755   3.168 -0.2300  0.2824 -0.0090
    1DPPC   C2B16822  18.900  12.664   3.550 -0.0040  0.1338 -0.2961
    1DPPC   C3B16823  19.023  12.684   3.971 -0.0109 -0.0884 -0.1476
    1DPPC   C4B16824  18.861  12.512   4.333 -0.1285  0.1366 -0.1346
    1DPPC   NC316825  10.335   8.156   3.527 -0.0408  0.0561  0.0062
    1DPPC   PO416826  10.261   8.557   3.750 -0.0365 -0.0804  0.1840
    1DPPC   GL116827  10.270   8.477   4.113 -0.0850  0.1291 -0.2444
    1DPPC   GL216828  10.081   8.688   4.257  0.1870  0.1900  0.1588
    1DPPC   C1A16829  10.479   8.442   4.422  0.1411  0.2087 -0.3429
    1DPPC   C2A16830  10.516   8.325   4.743 -0.2232 -0.0459 -0.0816
    1DPPC   C3A16831  10.578   8.438   5.129  0.3761 -0.0134 -0.3292
    1DPPC   C4A16832  10.460   8.791   5.193  0.0615 -0.1908  0.0619
    1DPPC   C1B16833  10.123   8.675   4.716 -0.0131 -0.1576  0.2463
    1DPPC   C2B16834  10.010   8.622   5.147  0.1171 -0.0203 -0.1104
    1DPPC   C3B16835   9.951   8.810   5.457 -0.2227  0.2327 -0.1733
    1DPPC   C4B16836  10.001   9.039   5.822  0.2867  0.1396  0.0898
    1DPPC   NC316837  20.275  12.312   1.558  0.1358 -0.0630 -0.0061
    1DPPC   PO416838  20.058  12.574   1.881  0.3410 -0.0375 -0.1815
    1DPPC   GL116839  19.959  12.887   2.189 -0.2337 -0.0585 -0.1927
    1DPPC   GL216840  20.283  13.019   2.316  0.1533 -0.0860 -0.3648
    1DPPC   C1A16841  19.922  12.863   2.634 -0.0760 -0.0075 -0.1630
    1DPPC   C2A16842  19.872  12.942   3.062 -0.1953 -0.0914  0.4866
    1DPPC   C3A16843  19.915  12.922   3.549  0.0104 -0.2213 -0.2248
    1DPPC   C4A16844  19.937  13.048   3.960  0.0273  0.3266  0.2701
    1DPPC   C1B16845  20.261  13.221   2.733  0.1275 -0.0297  0.1873
    1DPPC   C2B16846  20.314  13.251   3.152  0.2162  0.0385  0.0608
    1DPPC   C3B16847  20.338  13.192   3.496 -0.2361  0.1013  0.0218
    1DPPC   C4B16848  20.448  13.194   4.032 -0.2578 -0.2208  0.1262
    1DPPC   NC316849  18.489  11.039   2.003  0.0585  0.0049  0.4569
    1DPPC   PO416850  18.912  10.896   2.151 -0.0364  0.4049  0.0865
    1DPPC   GL116851  18.621  10.815   2.500 -0.0433  0.1791  0.0171
    1DPPC   GL216852  18.411  11.047   2.508 -0.0966 -0.3140  0.0131
    1DPPC   C1A16853  18.624  10.567   2.929 -0.0161 -0.2307  0.2673
    1DPPC   C2A16854  18.319  10.489   3.309  0.1227  0.1601  0.1596
    1DPPC   C3A16855  18.317  10.601   3.751 -0.3125  0.0872 -0.0860
    1DPPC   C4A16856  18.235  10.566   4.148  0.0659  0.2272 -0.0761
    1DPPC   C1B16857  18.631  11.068   2.968 -0.0720  0.2122  0.3043
    1DPPC   C2B16858  18.595  10.896   3.371  0.0950  0.1767  0.2675
    1DPPC   C3B16859  18.765  10.976   3.799 -0.1542  0.1160 -0.1559
    1DPPC   C4B16860  18.726  10.826   4.143  0.0977  0.0182  0.1931
    1DPPC   NC316861  19.589  10.623   1.674  0.0833  0.2217 -0.2153
    1DPPC   PO416862  19.778  10.765   2.140 -0.1383  0.1364  0.1220
    1DPPC   GL116863  19.769  10.679   2.590  0.1613 -0.3164  0.2026
    1DPPC   GL216864  20.049  10.541   2.701  0.0277 -0.0968 -0.0646
    1DPPC   C1A16865  19.637  10.734   3.033  0.0187 -0.1413 -0.0003
    1DPPC   C2A16866  19.576  10.713   3.503 -0.1415  0.0972  0.0137
    1DPPC   C3A16867  19.659  10.699   3.922 -0.1164  0.0747  0.1736
    1DPPC   C4A16868  19.708  10.670   4.340 -0.0209  0.0153  0.1091
    1DPPC   C1B16869  20.173  10.635   3.135  0.1896  0.0293 -0.0818
    1DPPC   C2B16870  20.164  10.653   3.562  0.0884 -0.2779 -0.0665
    1DPPC   C3B16871  20.167  10.502   3.982  0.2311  0.1118  0.1226
    1DPPC   C4B16872  20.178  10.436   4.403 -0.1871 -0.1145 -0.2731
    1DPPC   NC316873  18.059  12.619   1.985 -0.0379  0.1656 -0.0031
    1DPPC   PO416874  18.226  12.924   2.159 -0.0046  0.0991  0.1602
    1DPPC   GL116875  18.368  13.209   2.559  0.0530  0.0747  0.4345
    1DPPC   GL216876  18.243  13.443   2.651  0.2246  0.3241 -0.1473
    1DPPC   C1A16877  18.637  13.183   2.933 -0.3167 -0.1386  0.3867
    1DPPC   C2A16878  18.671  13.196   3.392 -0.2196  0.3894  0.0332
    1DPPC   C3A16879  18.702  13.026   3.817 -0.0907 -0.0212  0.1040
    1DPPC   C4A16880  18.950  13.012   4.352  0.1108  0.1230 -0.0011
    1DPPC   C1B16881  18.193  13.411   3.111 -0.2933 -0.0078 -0.0667
    1DPPC   C2B16882  18.283  13.379   3.586  0.1150 -0.1035 -0.1038
    1DPPC   C3B16883  18.272  13.188   4.004 -0.2148 -0.0663  0.1438
    1DPPC   C4B16884  18.514  13.101   4.362  0.1008  0.2033  0.1593
    1DPPC   NC316885  13.031  12.434   2.258 -0.0055 -0.1208 -0.0804
    1DPPC   PO416886  13.395  12.728   2.376  0.1620  0.2769 -0.0684
    1DPPC   GL116887  13.472  12.627   2.856  0.1629  0.0155 -0.0410
    1DPPC   GL216888  13.669  12.767   2.985 -0.1055  0.2022  0.0835
    1DPPC   C1A16889  13.218  12.627   3.240  0.0997 -0.1513 -0.0301
    1DPPC   C2A16890  13.225  12.758   3.621 -0.0274 -0.0584 -0.0482
    1DPPC   C3A16891  13.249  12.887   4.062 -0.0122  0.1548  0.2014
    1DPPC   C4A16892  13.143  13.073   4.484  0.0611  0.1069  0.2707
    1DPPC   C1B16893  13.601  13.018   3.358  0.0039  0.1359 -0.1295
    1DPPC   C2B16894  13.578  13.133   3.785 -0.1290  0.1390  0.1419
    1DPPC   C3B16895  13.599  13.149   4.242  0.1093  0.1045 -0.0312
    1DPPC   C4B16896  13.635  13.158   4.616  0.1253  0.2717 -0.1826
    1DPPC   NC316897   4.706  23.812   1.698 -0.1463 -0.1044 -0.0281
    1DPPC   PO416898   5.038  23.391   1.613  0.1757 -0.3905 -0.0013
    1DPPC   GL116899   5.020  23.524   2.099 -0.3889 -0.0574 -0.0036
    1DPPC   GL216900   5.141  23.268   2.387 -0.0281 -0.1137  0.2601
    1DPPC   C1A16901   4.634  23.455   2.400 -0.2063 -0.2730 -0.0018
    1DPPC   C2A16902   4.584  23.463   2.832 -0.0475 -0.0723 -0.0432
    1DPPC   C3A16903   4.548  23.383   3.156  0.1589 -0.1737 -0.2356
    1DPPC   C4A16904   4.346  23.117   3.332  0.2796  0.1386 -0.0921
    1DPPC   C1B16905   5.518  23.440   2.720 -0.5357 -0.2157  0.1253
    1DPPC   C2B16906   5.640  23.661   3.051  0.1985  0.4210  0.0828
    1DPPC   C3B16907   5.945  23.790   3.415  0.0669 -0.4162  0.1602
    1DPPC   C4B16908   6.215  23.944   3.755 -0.2202 -0.1896 -0.0023
    1DPPC   NC316909  12.576   8.690   3.448  0.0385  0.1790  0.0416
    1DPPC   PO416910  13.075   8.765   3.569  0.1048 -0.1041  0.1944
    1DPPC   GL116911  12.679   8.779   3.894 -0.2683  0.2086  0.2349
    1DPPC   GL216912  12.760   8.525   4.171  0.0188 -0.1744 -0.4227
    1DPPC   C1A16913  12.501   8.953   4.271 -0.1082 -0.0503  0.1220
    1DPPC   C2A16914  12.479   9.112   4.619 -0.1505  0.0771  0.1609
    1DPPC   C3A16915  12.684   9.062   5.020 -0.0598 -0.0970  0.0350
    1DPPC   C4A16916  13.010   9.134   5.278  0.2504  0.0754  0.0363
    1DPPC   C1B16917  12.992   8.646   4.456 -0.2209  0.0368 -0.0033
    1DPPC   C2B16918  13.187   8.747   4.771 -0.2008 -0.0026 -0.0833
    1DPPC   C3B16919  13.172   8.659   5.123 -0.1803 -0.1295 -0.0767
    1DPPC   C4B16920  13.052   8.733   5.571 -0.1471  0.1110  0.0775
    1DPPC   NC316921  28.071  23.815   2.698  0.0637 -0.1571  0.0757
    1DPPC   PO416922  27.825  23.575   2.546 -0.2744 -0.0219  0.1327
    1DPPC   GL116923  27.952  23.520   3.100 -0.0969 -0.0036  0.1124
    1DPPC   GL216924  27.648  23.693   3.241 -0.1501  0.1789  0.0945
    1DPPC   C1A16925  28.272  23.643   3.393 -0.0903  0.2153 -0.1573
    1DPPC   C2A16926  28.681  23.519   3.536  0.1413  0.0107  0.0714
    1DPPC   C3A16927  29.050  23.617   3.864 -0.0783 -0.1247  0.2095
    1DPPC   C4A16928  29.314  23.456   4.130 -0.2903  0.0164  0.0267
    1DPPC   C1B16929  27.815  23.759   3.638 -0.1087  0.0009 -0.1134
    1DPPC   C2B16930  28.141  23.567   3.884 -0.0337  0.1099 -0.0461
    1DPPC   C3B16931  28.443  23.393   4.005  0.0103 -0.1584  0.4998
    1DPPC   C4B16932  28.810  23.191   3.952 -0.3166  0.2785 -0.0613
    1DPPC   NC316933   2.963   1.820   3.115  0.0583 -0.2657 -0.5026
    1DPPC   PO416934   3.209   1.944   3.411  0.0495 -0.3066  0.2504
    1DPPC   GL116935   3.199   2.251   3.745 -0.2838  0.0543  0.1317
    1DPPC   GL216936   3.221   2.504   3.788 -0.0454  0.1998 -0.1274
    1DPPC   C1A16937   3.263   2.334   4.238 -0.0395  0.0701 -0.1371
    1DPPC   C2A16938   3.337   2.692   4.374 -0.2098 -0.2300 -0.0304
    1DPPC   C3A16939   3.439   2.965   4.678  0.2380  0.1009  0.0011
    1DPPC   C4A16940   3.534   3.350   4.607  0.0197 -0.2665  0.2252
    1DPPC   C1B16941   3.631   2.535   4.003 -0.0220  0.4654 -0.2414
    1DPPC   C2B16942   3.805   2.407   4.371  0.0280 -0.2329  0.1791
    1DPPC   C3B16943   3.479   2.247   4.695  0.1923  0.1291 -0.1034
    1DPPC   C4B16944   3.196   2.344   4.935 -0.1633  0.0202  0.1647
    1DPPC   NC316945  14.493   9.322   3.126  0.4696  0.1545  0.1719
    1DPPC   PO416946  14.776   9.644   2.977 -0.1616 -0.1781  0.1964
    1DPPC   GL116947  14.661   9.830   3.318 -0.2235  0.1297 -0.0045
    1DPPC   GL216948  14.827   9.507   3.486  0.0806  0.0339 -0.0090
    1DPPC   C1A16949  14.801   9.922   3.772  0.0710 -0.0669 -0.0168
    1DPPC   C2A16950  14.974   9.948   4.154  0.0967  0.1735 -0.0616
    1DPPC   C3A16951  15.060   9.836   4.532  0.1686  0.1478 -0.0682
    1DPPC   C4A16952  15.281   9.979   4.909 -0.2330  0.1221  0.2154
    1DPPC   C1B16953  15.186   9.598   3.714 -0.3219 -0.1183  0.3750
    1DPPC   C2B16954  15.444   9.697   4.044  0.0874  0.0025 -0.0887
    1DPPC   C3B16955  15.547   9.836   4.478  0.0866 -0.0527  0.0423
    1DPPC   C4B16956  15.894  10.000   4.737  0.3531  0.0263  0.1178
    1DPPC   NC316957   5.886  15.835   2.383  0.0341 -0.3075 -0.0348
    1DPPC   PO416958   6.003  16.123   2.711 -0.0100 -0.1220  0.3305
    1DPPC   GL116959   5.843  16.377   2.995 -0.0270 -0.0412 -0.1545
    1DPPC   GL216960   5.929  16.080   3.273  0.4052  0.2136  0.3688
    1DPPC   C1A16961   5.538  16.627   3.297  0.1593  0.0583 -0.0594
    1DPPC   C2A16962   5.162  16.755   3.609  0.0968  0.0332  0.1513
    1DPPC   C3A16963   4.947  16.694   4.018 -0.3764 -0.2845  0.1675
    1DPPC   C4A16964   5.077  16.431   4.351  0.2999 -0.1542 -0.1951
    1DPPC   C1B16965   5.819  15.771   3.540 -0.0502  0.2930  0.3650
    1DPPC   C2B16966   5.468  15.764   3.791  0.1713 -0.1736  0.0265
    1DPPC   C3B16967   5.034  15.926   3.983  0.2011  0.3407 -0.0337
    1DPPC   C4B16968   4.612  16.040   3.952  0.0194 -0.0409 -0.0694
    1DPPC   NC316969  21.100  13.608   2.002 -0.0940 -0.2471  0.3661
    1DPPC   PO416970  20.868  13.285   2.213 -0.0105 -0.0882 -0.1063
    1DPPC   GL116971  20.721  13.200   2.531 -0.1568  0.2621 -0.1626
    1DPPC   GL216972  20.707  13.512   2.727  0.0406 -0.1099  0.2332
    1DPPC   C1A16973  20.713  13.047   2.979 -0.2779 -0.2885 -0.0732
    1DPPC   C2A16974  20.842  13.073   3.362  0.0132  0.0926 -0.2491
    1DPPC   C3A16975  20.858  13.036   3.785  0.2934  0.0279  0.0165
    1DPPC   C4A16976  20.789  12.864   4.212 -0.1033 -0.2540  0.0885
    1DPPC   C1B16977  20.705  13.495   3.197 -0.3034  0.1771  0.3579
    1DPPC   C2B16978  20.694  13.553   3.599  0.2130 -0.0701 -0.0206
    1DPPC   C3B16979  20.679  13.763   3.992 -0.1136 -0.0135 -0.2246
    1DPPC   C4B16980  20.507  13.769   4.361 -0.0216  0.2338 -0.2835
    1DPPC   NC316981  11.822  11.696   3.165 -0.0215  0.0109 -0.1278
    1DPPC   PO416982  12.009  11.239   3.278  0.1543 -0.1096 -0.0754
    1DPPC   GL116983  12.310  11.166   3.773 -0.2322 -0.2274 -0.1183
    1DPPC   GL216984  12.114  10.861   3.829 -0.3038 -0.1742  0.1767
    1DPPC   C1A16985  12.262  11.183   4.220  0.2957 -0.0699  0.1497
    1DPPC   C2A16986  12.239  11.171   4.613  0.2103  0.0228  0.0579
    1DPPC   C3A16987  12.341  11.242   5.019  0.3804  0.3469 -0.2537
    1DPPC   C4A16988  12.435  11.073   5.376 -0.1247 -0.0046  0.0687
    1DPPC   C1B16989  11.909  10.530   4.152  0.0606 -0.2137  0.0557
    1DPPC   C2B16990  11.925  10.485   4.556  0.1448  0.1516  0.0370
    1DPPC   C3B16991  11.785  10.430   4.898  0.0707 -0.0311 -0.1466
    1DPPC   C4B16992  11.824  10.454   5.338 -0.0234 -0.1595  0.2829
    1DPPC   NC316993  10.447  19.548   2.601 -0.2859 -0.1768  0.0202
    1DPPC   PO416994  10.845  19.562   2.624 -0.0041 -0.0235  0.1338
    1DPPC   GL116995  10.974  19.565   2.998 -0.2800 -0.0604  0.1202
    1DPPC   GL216996  11.240  19.666   3.042  0.1377  0.4208  0.0356
    1DPPC   C1A16997  10.825  19.569   3.413  0.0600  0.0796  0.0899
    1DPPC   C2A16998  10.577  19.594   3.837 -0.0356 -0.3101 -0.2645
    1DPPC   C3A16999  10.438  19.898   4.019  0.0821  0.0521  0.3584
    1DPPC   C4A17000  10.602  20.138   4.216  0.0614 -0.1079  0.0483
    1DPPC   C1B17001  11.241  19.779   3.561 -0.1357  0.0214 -0.3348
    1DPPC   C2B17002  11.086  19.592   3.987  0.2605  0.1138  0.1746
    1DPPC   C3B17003  10.765  19.630   4.341 -0.1941  0.0449  0.1338
    1DPPC   C4B17004  10.407  19.383   4.326 -0.1561 -0.2389  0.2186
    1DPPC   NC317005  24.378  17.702   2.093 -0.1716  0.2917  0.0530
    1DPPC   PO417006  24.196  18.043   2.064  0.0084 -0.0413 -0.0046
    1DPPC   GL117007  24.088  17.895   2.472  0.0949  0.1229  0.1171
    1DPPC   GL217008  23.860  17.556   2.382 -0.1611 -0.3436  0.0229
    1DPPC   C1A17009  24.168  17.933   2.949  0.1490 -0.1157 -0.0734
    1DPPC   C2A17010  24.267  17.772   3.326 -0.0093 -0.0712  0.0053
    1DPPC   C3A17011  24.387  17.833   3.791  0.0200 -0.2699  0.0030
    1DPPC   C4A17012  24.603  18.082   4.069 -0.0647 -0.1540 -0.0083
    1DPPC   C1B17013  23.780  17.186   2.651  0.1300 -0.1104 -0.0919
    1DPPC   C2B17014  23.771  17.158   3.120 -0.2155 -0.0921 -0.0471
    1DPPC   C3B17015  23.836  17.135   3.636  0.1864 -0.1147  0.4334
    1DPPC   C4B17016  24.176  17.388   3.888  0.0292  0.1129  0.2075
    1DPPC   NC317017  16.617  16.738   2.024  0.0928 -0.2650  0.0567
    1DPPC   PO417018  16.794  17.166   2.290 -0.3319 -0.1896 -0.4007
    1DPPC   GL117019  16.661  16.945   2.582 -0.1042 -0.0136 -0.0833
    1DPPC   GL217020  16.593  17.239   2.823 -0.0295  0.0683 -0.0232
    1DPPC   C1A17021  16.724  16.668   2.922  0.1933  0.4857  0.1085
    1DPPC   C2A17022  16.842  16.669   3.355  0.1302 -0.0196 -0.1167
    1DPPC   C3A17023  16.844  16.621   3.802  0.1582  0.0330  0.2049
    1DPPC   C4A17024  16.718  16.741   4.189 -0.0582  0.1566 -0.2413
    1DPPC   C1B17025  16.780  17.184   3.199  0.3466  0.2960  0.0192
    1DPPC   C2B17026  16.778  17.113   3.615  0.0035  0.2045  0.1322
    1DPPC   C3B17027  16.858  17.247   4.000  0.0408  0.0422  0.0061
    1DPPC   C4B17028  16.930  17.300   4.377 -0.0251 -0.3092 -0.1069
    1DPPC   NC317029  20.145  16.056   2.129 -0.1457 -0.1784  0.1131
    1DPPC   PO417030  20.179  15.612   2.156  0.1847 -0.0559  0.2482
    1DPPC   GL117031  19.928  15.912   2.541 -0.4491 -0.1834 -0.0435
    1DPPC   GL217032  19.813  16.236   2.439 -0.1585 -0.2335 -0.3331
    1DPPC   C1A17033  19.755  15.912   2.908 -0.1933 -0.0510 -0.1654
    1DPPC   C2A17034  19.826  15.942   3.302 -0.0152 -0.0421 -0.0808
    1DPPC   C3A17035  19.750  15.953   3.723 -0.2781  0.0005  0.0787
    1DPPC   C4A17036  20.040  16.071   4.139  0.1175  0.4509  0.1510
    1DPPC   C1B17037  20.003  16.402   2.816 -0.0160 -0.2722 -0.2724
    1DPPC   C2B17038  20.059  16.352   3.216 -0.0537 -0.2442 -0.0663
    1DPPC   C3B17039  20.086  16.415   3.539 -0.1722  0.3554  0.2064
    1DPPC   C4B17040  20.188  16.488   3.908 -0.1258 -0.1942  0.1494
    1DPPC   NC317041  22.615  18.040   2.324 -0.3300  0.3837  0.0942
    1DPPC   PO417042  22.161  18.229   2.395  0.1055  0.2646  0.1495
    1DPPC   GL117043  22.111  17.894   2.536  0.0364  0.1999  0.0562
    1DPPC   GL217044  21.907  17.673   2.494 -0.2607  0.0445 -0.0200
    1DPPC   C1A17045  22.383  17.675   2.939  0.3555  0.1868 -0.1919
    1DPPC   C2A17046  22.486  17.532   3.346  0.3890 -0.1163 -0.1974
    1DPPC   C3A17047  22.693  17.461   3.787  0.1011 -0.3456 -0.1751
    1DPPC   C4A17048  23.091  17.620   4.010 -0.2196  0.3102  0.0972
    1DPPC   C1B17049  21.803  17.452   2.873 -0.1386  0.4926 -0.2480
    1DPPC   C2B17050  22.019  17.436   3.283 -0.2624  0.1637  0.0777
    1DPPC   C3B17051  22.129  17.398   3.659  0.1049 -0.2519 -0.1177
    1DPPC   C4B17052  22.061  17.161   4.001  0.0345  0.0836 -0.0252
    1DPPC   NC317053  22.476  11.865   2.026  0.2358  0.0977 -0.1356
    1DPPC   PO417054  22.664  11.917   2.413 -0.0209  0.3084  0.1784
    1DPPC   GL117055  22.518  12.141   2.830  0.2050 -0.2692 -0.1870
    1DPPC   GL217056  22.341  12.380   2.827  0.4056 -0.1773  0.1587
    1DPPC   C1A17057  22.406  12.075   3.261  0.2667  0.2112  0.1223
    1DPPC   C2A17058  22.540  12.000   3.709 -0.0224 -0.2460 -0.0729
    1DPPC   C3A17059  22.680  11.903   4.255 -0.0830  0.3573  0.1466
    1DPPC   C4A17060  22.753  12.155   4.631  0.0430  0.1147  0.1422
    1DPPC   C1B17061  22.286  12.542   3.250 -0.4160  0.0381  0.0880
    1DPPC   C2B17062  22.357  12.738   3.583 -0.1912  0.0179 -0.0223
    1DPPC   C3B17063  22.240  12.837   4.025  0.0274  0.2405 -0.1513
    1DPPC   C4B17064  22.141  12.930   4.456  0.0800 -0.0099 -0.1329
    1DPPC   NC317065  10.483  20.368   2.157 -0.4683 -0.0466 -0.1623
    1DPPC   PO417066  10.494  20.065   2.538 -0.0784 -0.0754  0.1934
    1DPPC   GL117067  10.623  19.959   2.959 -0.0110  0.0321 -0.1281
    1DPPC   GL217068  10.336  19.820   3.040 -0.2288  0.0347  0.0598
    1DPPC   C1A17069  10.936  20.093   3.202  0.2357 -0.2606  0.0936
    1DPPC   C2A17070  11.431  20.226   3.303  0.0527  0.2507  0.2089
    1DPPC   C3A17071  11.576  20.310   3.740 -0.0059  0.0758 -0.0753
    1DPPC   C4A17072  11.647  20.410   4.138 -0.0886  0.0442 -0.3667
    1DPPC   C1B17073  10.394  19.928   3.465 -0.2334  0.1927 -0.3644
    1DPPC   C2B17074  10.790  20.072   3.704  0.0845 -0.0539  0.0126
    1DPPC   C3B17075  11.107  20.064   3.973  0.1392 -0.1558 -0.2774
    1DPPC   C4B17076  11.294  19.903   4.295  0.1571  0.1343 -0.0178
    1DPPC   NC317077  12.461  12.978   2.685  0.1271 -0.3077  0.1769
    1DPPC   PO417078  12.792  13.222   2.699 -0.1044 -0.1428  0.0563
    1DPPC   GL117079  12.823  13.053   3.134 -0.1501  0.1136  0.2261
    1DPPC   GL217080  13.044  13.252   3.242 -0.1203 -0.1211  0.2459
    1DPPC   C1A17081  12.526  13.118   3.400  0.1386  0.3144 -0.3723
    1DPPC   C2A17082  12.444  13.215   3.695  0.0189 -0.0851 -0.3105
    1DPPC   C3A17083  12.411  13.194   4.046  0.1507 -0.1182  0.2977
    1DPPC   C4A17084  12.292  13.372   4.493  0.1959 -0.0142 -0.1138
    1DPPC   C1B17085  13.027  13.246   3.627 -0.3953  0.1805  0.1690
    1DPPC   C2B17086  12.919  13.292   4.027  0.2224  0.0364 -0.0025
    1DPPC   C3B17087  12.784  13.426   4.353  0.3305  0.0529 -0.0290
    1DPPC   C4B17088  12.855  13.513   4.795  0.0175  0.0211  0.0013
    1DPPC   NC317089  22.259   6.313   2.938  0.1415  0.3766 -0.1353
    1DPPC   PO417090  22.182   5.974   3.136  0.0637  0.0967  0.0579
    1DPPC   GL117091  21.958   5.763   3.489 -0.0625  0.1699  0.1924
    1DPPC   GL217092  22.226   5.667   3.615 -0.0733 -0.0958  0.0096
    1DPPC   C1A17093  21.857   5.657   3.960  0.3731  0.3698  0.2697
    1DPPC   C2A17094  21.772   5.349   4.267  0.0610 -0.2802  0.3392
    1DPPC   C3A17095  21.824   5.088   4.678  0.1953 -0.1517 -0.1344
    1DPPC   C4A17096  21.877   4.695   4.873 -0.2249 -0.0626  0.3150
    1DPPC   C1B17097  22.360   5.556   4.039 -0.0083 -0.3860  0.0997
    1DPPC   C2B17098  22.408   5.516   4.475  0.1923  0.1937 -0.1349
    1DPPC   C3B17099  22.089   5.500   4.912 -0.0736  0.1081 -0.0354
    1DPPC   C4B17100  22.188   5.620   5.378 -0.2841 -0.1166 -0.0374
    1DPPC   NC317101   9.325  14.237   2.550  0.3955  0.1905  0.2871
    1DPPC   PO417102   9.324  13.724   2.551 -0.0748  0.1465  0.0773
    1DPPC   GL117103   9.404  13.771   3.064 -0.1008 -0.2676 -0.1993
    1DPPC   GL217104   9.462  14.029   3.223  0.0139  0.2711 -0.3344
    1DPPC   C1A17105   9.418  13.681   3.586 -0.1880 -0.1259  0.0435
    1DPPC   C2A17106   9.312  13.297   3.883  0.0380 -0.1387  0.2943
    1DPPC   C3A17107   9.197  13.039   4.087  0.1417  0.2040 -0.1764
    1DPPC   C4A17108   9.232  12.700   4.241  0.1013 -0.3168  0.0214
    1DPPC   C1B17109   9.412  14.185   3.575  0.2436 -0.0239 -0.0812
    1DPPC   C2B17110   9.288  14.074   3.950  0.0363  0.3126  0.0625
    1DPPC   C3B17111   9.195  13.865   4.371  0.4287 -0.2170 -0.2313
    1DPPC   C4B17112   8.757  13.825   4.585  0.1442  0.0549 -0.1682
    1DPPC   NC317113  19.164  18.043   2.495 -0.0654 -0.1852 -0.4061
    1DPPC   PO417114  18.766  18.108   2.248 -0.0275 -0.1936  0.2252
    1DPPC   GL117115  18.711  18.231   2.637  0.2094 -0.2406  0.1372
    1DPPC   GL217116  18.621  17.982   2.817 -0.1320 -0.0643  0.0433
    1DPPC   C1A17117  18.698  18.360   3.114 -0.0706 -0.3571 -0.4467
    1DPPC   C2A17118  18.651  18.311   3.552 -0.1020 -0.0154  0.3258
    1DPPC   C3A17119  18.648  18.358   4.016  0.3477  0.1784  0.0525
    1DPPC   C4A17120  18.677  18.442   4.460 -0.0563 -0.2036  0.1407
    1DPPC   C1B17121  18.779  17.755   3.122 -0.1488 -0.3749  0.0508
    1DPPC   C2B17122  18.605  17.780   3.450  0.4744  0.0414  0.0049
    1DPPC   C3B17123  18.610  17.757   3.812 -0.3166 -0.2045 -0.2080
    1DPPC   C4B17124  18.562  17.738   4.190  0.3202  0.3378  0.0568
    1DPPC   NC317125  20.568   7.139   2.803  0.0122 -0.1063  0.1518
    1DPPC   PO417126  20.926   6.967   2.909 -0.0631  0.1327  0.0424
    1DPPC   GL117127  20.806   7.158   3.250  0.2020 -0.1065 -0.1857
    1DPPC   GL217128  20.520   7.328   3.288  0.0817  0.0216  0.1959
    1DPPC   C1A17129  20.761   7.233   3.710  0.2011 -0.2474  0.0846
    1DPPC   C2A17130  20.706   7.350   4.041 -0.3215 -0.1506  0.1974
    1DPPC   C3A17131  20.355   7.526   4.308  0.2799  0.4426  0.2280
    1DPPC   C4A17132  20.325   7.536   4.712 -0.0948 -0.1198  0.0856
    1DPPC   C1B17133  20.228   7.191   3.645 -0.4775 -0.1431 -0.1562
    1DPPC   C2B17134  20.021   7.273   4.029  0.0071  0.0608  0.0507
    1DPPC   C3B17135  19.876   7.259   4.483  0.1353  0.2441 -0.0535
    1DPPC   C4B17136  20.004   7.036   4.826 -0.1648 -0.0914  0.0844
    1DPPC   NC317137  17.646  14.278   1.897 -0.3147 -0.3341 -0.1337
    1DPPC   PO417138  17.564  14.671   2.035 -0.3331  0.0930 -0.1797
    1DPPC   GL117139  17.620  14.609   2.476 -0.3346  0.2354 -0.1660
    1DPPC   GL217140  17.347  14.505   2.668  0.3719  0.2176  0.1987
    1DPPC   C1A17141  17.833  14.355   2.672 -0.1333  0.2283 -0.1024
    1DPPC   C2A17142  17.960  14.485   3.024  0.2104  0.0090 -0.3358
    1DPPC   C3A17143  17.912  14.529   3.434  0.0351 -0.2459 -0.2401
    1DPPC   C4A17144  17.909  14.581   3.865 -0.1205  0.0947 -0.2862
    1DPPC   C1B17145  17.307  14.667   3.058  0.0799  0.0025  0.2151
    1DPPC   C2B17146  17.366  14.475   3.492  0.3915  0.1783  0.0616
    1DPPC   C3B17147  17.443  14.300   3.911 -0.0014  0.2551  0.1583
    1DPPC   C4B17148  17.135  14.074   4.286 -0.1548 -0.0072  0.0229
    1DPPC   NC317149  21.409  11.884   2.171  0.2743  0.4248 -0.1585
    1DPPC   PO417150  21.013  11.830   1.922 -0.0959 -0.3245 -0.0591
    1DPPC   GL117151  20.919  12.077   2.285  0.1537 -0.1371  0.0107
    1DPPC   GL217152  20.704  12.396   2.374 -0.0596  0.1307  0.2440
    1DPPC   C1A17153  20.899  11.989   2.703 -0.1428 -0.2106  0.2909
    1DPPC   C2A17154  20.633  12.149   3.001 -0.0490 -0.1863 -0.0713
    1DPPC   C3A17155  20.787  12.139   3.375 -0.0000 -0.1372 -0.0061
    1DPPC   C4A17156  21.015  12.261   3.705  0.1281  0.0229  0.3504
    1DPPC   C1B17157  20.842  12.506   2.715  0.0033  0.0391  0.1404
    1DPPC   C2B17158  20.916  12.637   3.161 -0.1749  0.1010 -0.1453
    1DPPC   C3B17159  20.716  12.631   3.609  0.1114 -0.1167 -0.0604
    1DPPC   C4B17160  20.700  12.404   4.037 -0.2687  0.1037  0.0832
    1DPPC   NC317161  20.644  15.660   1.999  0.0973  0.4922 -0.1137
    1DPPC   PO417162  20.822  16.010   1.933  0.0527  0.1604  0.2653
    1DPPC   GL117163  20.794  15.886   2.426  0.1674 -0.2013  0.0872
    1DPPC   GL217164  20.432  15.799   2.529  0.0740  0.0390 -0.4152
    1DPPC   C1A17165  20.781  15.912   2.867  0.1214  0.1022  0.1393
    1DPPC   C2A17166  20.872  15.908   3.265 -0.2681 -0.3664 -0.1037
    1DPPC   C3A17167  20.764  15.928   3.680 -0.1956 -0.1309 -0.0523
    1DPPC   C4A17168  20.546  16.089   4.018  0.1650  0.0277  0.2003
    1DPPC   C1B17169  20.292  15.956   2.960 -0.4138  0.0462  0.2071
    1DPPC   C2B17170  20.338  15.943   3.334 -0.1147  0.2118 -0.4316
    1DPPC   C3B17171  20.233  15.902   3.693 -0.1429  0.0116 -0.1031
    1DPPC   C4B17172  20.399  15.644   3.997 -0.1565  0.4672 -0.1043
    1DPPC   NC317173  19.926  13.337   2.056 -0.3489 -0.0267  0.0428
    1DPPC   PO417174  19.801  13.768   2.080  0.0757  0.0723 -0.1127
    1DPPC   GL117175  19.567  13.835   2.520  0.0886 -0.0937  0.2596
    1DPPC   GL217176  19.273  13.732   2.573 -0.2718  0.0481  0.0118
    1DPPC   C1A17177  19.669  14.102   2.861 -0.1988  0.0648 -0.0119
    1DPPC   C2A17178  19.656  14.185   3.211 -0.1165 -0.0398  0.2337
    1DPPC   C3A17179  19.688  14.000   3.589 -0.1965  0.2528  0.0613
    1DPPC   C4A17180  19.686  14.129   4.004  0.0064 -0.1217  0.3087
    1DPPC   C1B17181  19.259  13.856   2.999  0.3606 -0.3871  0.2389
    1DPPC   C2B17182  19.222  13.815   3.388  0.2265 -0.0331  0.0001
    1DPPC   C3B17183  19.224  13.831   3.827  0.0830 -0.3399 -0.0239
    1DPPC   C4B17184  19.278  13.773   4.172  0.1763  0.0067  0.2764
    1DPPC   NC317185  20.718  14.444   2.268  0.2546  0.0633  0.3242
    1DPPC   PO417186  20.649  14.826   2.385  0.1400  0.0183  0.1446
    1DPPC   GL117187  20.930  14.817   2.635  0.3865 -0.0590 -0.3323
    1DPPC   GL217188  20.773  14.965   2.826 -0.0824 -0.2059  0.2965
    1DPPC   C1A17189  21.268  14.900   2.965 -0.0665  0.2920 -0.1894
    1DPPC   C2A17190  21.403  15.037   3.357  0.0965 -0.2119 -0.1889
    1DPPC   C3A17191  21.348  15.300   3.691 -0.1748  0.2135 -0.2986
    1DPPC   C4A17192  21.688  15.445   3.940 -0.3265 -0.1531  0.2901
    1DPPC   C1B17193  20.868  15.014   3.263  0.1913  0.1553  0.0975
    1DPPC   C2B17194  20.968  14.957   3.645  0.1763 -0.0932  0.0183
    1DPPC   C3B17195  20.976  14.662   3.861 -0.1456  0.4473 -0.1733
    1DPPC   C4B17196  20.815  14.214   3.871 -0.4714 -0.2518 -0.0325
    1DPPC   NC317197  19.203  20.840   2.095 -0.0945 -0.0164 -0.0645
    1DPPC   PO417198  19.487  20.509   2.301  0.0488  0.2156 -0.1938
    1DPPC   GL117199  19.439  20.441   2.746 -0.2011  0.0592 -0.3319
    1DPPC   GL217200  19.110  20.268   2.825 -0.0742 -0.0829  0.3569
    1DPPC   C1A17201  19.272  20.586   3.111  0.1654 -0.1464  0.0975
    1DPPC   C2A17202  18.915  20.536   3.359 -0.0271  0.3777 -0.1647
    1DPPC   C3A17203  18.849  20.649   3.765 -0.1268  0.0100  0.1453
    1DPPC   C4A17204  18.833  21.023   4.060 -0.0923 -0.3201  0.1304
    1DPPC   C1B17205  19.069  20.046   3.216 -0.0775  0.0904 -0.0479
    1DPPC   C2B17206  19.015  20.123   3.654 -0.2028 -0.1985 -0.0453
    1DPPC   C3B17207  19.157  20.273   4.009  0.3216  0.2379 -0.0414
    1DPPC   C4B17208  19.351  20.515   4.270 -0.1226 -0.0999 -0.1389
    1DPPC   NC317209  17.542  13.551   1.974  0.2239 -0.0989  0.2064
    1DPPC   PO417210  17.831  13.805   2.053 -0.0716 -0.0729 -0.0441
    1DPPC   GL117211  17.732  13.651   2.467 -0.2719  0.0032 -0.0495
    1DPPC   GL217212  17.455  13.508   2.563 -0.0004 -0.0667 -0.0586
    1DPPC   C1A17213  17.805  13.636   2.879  0.4070 -0.0254  0.2812
    1DPPC   C2A17214  17.828  13.661   3.337  0.5572  0.0175  0.0466
    1DPPC   C3A17215  17.877  13.577   3.712  0.2113  0.1639 -0.0310
    1DPPC   C4A17216  17.942  13.636   4.129 -0.0693 -0.1323 -0.1994
    1DPPC   C1B17217  17.383  13.347   3.131 -0.1720 -0.1716 -0.0601
    1DPPC   C2B17218  17.473  13.316   3.568  0.2907 -0.2623  0.1246
    1DPPC   C3B17219  17.377  13.309   3.941  0.3903 -0.1123  0.0578
    1DPPC   C4B17220  17.467  13.453   4.347  0.0428 -0.0619 -0.1330
    1DPPC   NC317221  19.045  11.871   2.086 -0.1188 -0.1122 -0.4831
    1DPPC   PO417222  19.362  11.487   2.200 -0.0658  0.0805  0.4556
    1DPPC   GL117223  19.126  11.492   2.589  0.0436  0.1733 -0.1796
    1DPPC   GL217224  18.980  11.215   2.570 -0.0786  0.2062 -0.3897
    1DPPC   C1A17225  18.995  11.477   3.013 -0.0281 -0.0408 -0.0688
    1DPPC   C2A17226  18.817  11.439   3.341  0.0260  0.0818 -0.0535
    1DPPC   C3A17227  18.912  11.456   3.744 -0.2355  0.1908  0.1598
    1DPPC   C4A17228  18.937  11.416   4.228  0.1705  0.0777  0.2451
    1DPPC   C1B17229  18.609  11.485   2.668 -0.0772  0.2252  0.0194
    1DPPC   C2B17230  18.244  11.337   2.927  0.1851 -0.5366  0.3118
    1DPPC   C3B17231  18.258  11.283   3.289  0.0400  0.0445 -0.2117
    1DPPC   C4B17232  18.400  11.325   3.664 -0.0248 -0.0148 -0.2062
    1DPPC   NC317233  15.044  16.291   1.779 -0.1015 -0.0348 -0.0494
    1DPPC   PO417234  15.042  16.160   2.188  0.1377 -0.3652  0.1269
    1DPPC   GL117235  15.076  16.127   2.624 -0.0442 -0.0703 -0.0072
    1DPPC   GL217236  15.361  16.242   2.680 -0.0637 -0.2732 -0.0883
    1DPPC   C1A17237  15.026  16.038   2.998 -0.0930 -0.3345 -0.1035
    1DPPC   C2A17238  15.080  16.015   3.407 -0.1250 -0.0651 -0.1327
    1DPPC   C3A17239  14.999  16.054   3.808 -0.0619  0.0015 -0.1016
    1DPPC   C4A17240  14.880  16.056   4.250 -0.3377 -0.0581 -0.1270
    1DPPC   C1B17241  15.498  16.248   3.107  0.1013 -0.2416  0.0334
    1DPPC   C2B17242  15.488  16.334   3.552  0.0923 -0.2193 -0.0391
    1DPPC   C3B17243  15.428  16.373   3.961  0.1607  0.0618 -0.0192
    1DPPC   C4B17244  15.247  16.440   4.398 -0.0543 -0.2536 -0.0106
    1DPPC   NC317245  10.268   2.077   3.417  0.0565 -0.0092 -0.1846
    1DPPC   PO417246   9.830   1.871   3.490  0.2527 -0.3355  0.2503
    1DPPC   GL117247   9.877   1.684   3.925 -0.2872  0.3210 -0.1090
    1DPPC   GL217248  10.171   1.471   4.070 -0.0713  0.1570 -0.2432
    1DPPC   C1A17249   9.773   1.506   4.318 -0.3714  0.1587  0.1694
    1DPPC   C2A17250   9.709   1.389   4.707 -0.1107 -0.0970  0.3859
    1DPPC   C3A17251   9.681   1.173   5.117  0.1143 -0.0605 -0.3563
    1DPPC   C4A17252   9.566   1.120   5.550  0.1430 -0.2971 -0.0281
    1DPPC   C1B17253  10.106   1.158   4.384 -0.1359  0.1726 -0.0378
    1DPPC   C2B17254   9.846   0.941   4.671  0.0023  0.4398  0.0497
    1DPPC   C3B17255   9.838   0.692   5.011 -0.0031  0.0849 -0.0107
    1DPPC   C4B17256  10.012   0.318   5.062  0.1463 -0.0446 -0.0167
    1DPPC   NC317257  16.021  14.061   2.407  0.1610  0.0311  0.1763
    1DPPC   PO417258  16.236  13.859   2.087  0.0291  0.2466  0.2547
    1DPPC   GL117259  16.431  13.780   2.504 -0.1363 -0.0255  0.1218
    1DPPC   GL217260  16.583  13.492   2.585 -0.1845  0.0917  0.0993
    1DPPC   C1A17261  16.569  13.980   2.906 -0.0036 -0.1549  0.0960
    1DPPC   C2A17262  16.456  14.260   3.151  0.0781  0.1095  0.2413
    1DPPC   C3A17263  16.469  14.386   3.605 -0.0376 -0.0064  0.2107
    1DPPC   C4A17264  16.546  14.585   3.948  0.0132 -0.0478  0.0438
    1DPPC   C1B17265  16.553  13.517   2.976 -0.1292 -0.1557  0.1995
    1DPPC   C2B17266  16.524  13.500   3.451  0.1634 -0.1182  0.0038
    1DPPC   C3B17267  16.611  13.455   3.909 -0.0303  0.0871 -0.1544
    1DPPC   C4B17268  16.994  13.549   4.188 -0.0923  0.3502 -0.1074
    1DPPC   NC317269  17.345  20.224   2.233 -0.0804 -0.0636 -0.0098
    1DPPC   PO417270  17.544  20.446   2.692 -0.0067 -0.0610  0.1959
    1DPPC   GL117271  17.617  20.629   3.045 -0.0144  0.1422 -0.0679
    1DPPC   GL217272  17.931  20.684   3.160  0.1209  0.0936  0.2499
    1DPPC   C1A17273  17.495  20.610   3.508  0.2115 -0.0761 -0.1159
    1DPPC   C2A17274  17.692  20.500   3.921 -0.1731  0.2691 -0.0834
    1DPPC   C3A17275  17.666  20.399   4.362  0.2883  0.0189  0.4188
    1DPPC   C4A17276  17.425  20.606   4.726 -0.0752  0.0783  0.0218
    1DPPC   C1B17277  17.933  20.814   3.476 -0.0578  0.1744 -0.0950
    1DPPC   C2B17278  17.995  20.999   3.917 -0.0175  0.0730 -0.0621
    1DPPC   C3B17279  18.066  21.241   4.304 -0.1677 -0.1068  0.4186
    1DPPC   C4B17280  18.303  21.538   4.409  0.0610  0.1359 -0.4256
    1DPPC   NC317281  22.705  16.380   1.507  0.1596  0.2928 -0.0560
    1DPPC   PO417282  22.841  15.939   1.656  0.1018  0.0406  0.0425
    1DPPC   GL117283  22.816  16.064   2.042  0.2048 -0.0008  0.1107
    1DPPC   GL217284  22.578  16.062   2.260  0.1792 -0.0493 -0.4718
    1DPPC   C1A17285  23.114  16.116   2.370 -0.0152  0.2023 -0.1901
    1DPPC   C2A17286  23.254  16.392   2.681  0.0704  0.1138  0.0562
    1DPPC   C3A17287  23.162  16.264   3.089 -0.0183  0.0193 -0.2454
    1DPPC   C4A17288  23.264  16.273   3.527 -0.0016 -0.1344  0.0200
    1DPPC   C1B17289  22.689  15.725   2.452 -0.1189  0.1867 -0.2599
    1DPPC   C2B17290  22.743  15.431   2.749  0.0037 -0.1310  0.0319
    1DPPC   C3B17291  23.132  15.195   2.865 -0.3788  0.1632 -0.0608
    1DPPC   C4B17292  23.066  14.765   2.897 -0.1711  0.0671 -0.0767
    1DPPC   NC317293  22.954  18.405   2.140 -0.4074  0.1480  0.4042
    1DPPC   PO417294  22.502  18.524   2.176 -0.1574  0.2845  0.0244
    1DPPC   GL117295  22.533  18.464   2.710  0.2559 -0.4082  0.0846
    1DPPC   GL217296  22.468  18.154   2.785  0.1210  0.1685 -0.1361
    1DPPC   C1A17297  22.518  18.539   3.209  0.0327 -0.0298  0.1625
    1DPPC   C2A17298  22.617  18.431   3.496 -0.3034 -0.1247 -0.2818
    1DPPC   C3A17299  22.535  18.580   3.958 -0.1057  0.0886  0.1588
    1DPPC   C4A17300  22.639  18.621   4.355 -0.0676 -0.2969 -0.0406
    1DPPC   C1B17301  22.724  18.035   3.116 -0.0416  0.1295  0.0199
    1DPPC   C2B17302  22.901  17.945   3.519 -0.0235 -0.1720  0.0303
    1DPPC   C3B17303  22.950  18.106   3.960 -0.0533  0.2385 -0.0832
    1DPPC   C4B17304  22.904  18.209   4.377  0.2536  0.2593  0.0052
    1DPPC   NC317305  10.464  21.431   1.890 -0.2198  0.0108  0.2689
    1DPPC   PO417306  10.681  21.651   2.268  0.0437  0.1111  0.0728
    1DPPC   GL117307  10.673  21.386   2.676 -0.1832 -0.0948  0.0311
    1DPPC   GL217308  10.619  21.713   2.887 -0.1606 -0.0128 -0.3434
    1DPPC   C1A17309  10.613  21.201   3.009  0.2345 -0.4220 -0.1465
    1DPPC   C2A17310  10.741  20.961   3.328 -0.0629  0.0420 -0.1869
    1DPPC   C3A17311  10.756  20.876   3.836  0.5034  0.1214  0.0741
    1DPPC   C4A17312  10.632  20.724   4.347  0.2429  0.0838  0.1976
    1DPPC   C1B17313  10.585  21.966   3.284  0.1247 -0.1167 -0.1094
    1DPPC   C2B17314  10.329  21.831   3.647  0.3741 -0.1167  0.0462
    1DPPC   C3B17315  10.011  21.526   3.836  0.2289 -0.0373 -0.3013
    1DPPC   C4B17316   9.788  21.220   3.619  0.0973 -0.1992  0.2491
    1DPPC   NC317317  15.852  13.006   2.442 -0.2676 -0.4192  0.1494
    1DPPC   PO417318  15.900  13.519   2.201 -0.2215 -0.0272 -0.0836
    1DPPC   GL117319  15.913  13.601   2.599  0.0765 -0.0761  0.2331
    1DPPC   GL217320  16.097  13.293   2.769 -0.1109 -0.1754  0.1358
    1DPPC   C1A17321  16.065  13.824   3.009  0.2442 -0.0743  0.0975
    1DPPC   C2A17322  16.230  13.907   3.397 -0.1427  0.0360 -0.2391
    1DPPC   C3A17323  16.562  13.913   3.685 -0.0730 -0.0569 -0.0502
    1DPPC   C4A17324  16.685  13.952   4.175 -0.1760  0.1057 -0.0799
    1DPPC   C1B17325  16.037  13.344   3.217 -0.0615  0.2488  0.1362
    1DPPC   C2B17326  16.089  13.269   3.592 -0.0722 -0.2711 -0.2298
    1DPPC   C3B17327  16.076  13.292   3.987 -0.0206 -0.0146 -0.1737
    1DPPC   C4B17328  16.363  13.319   4.404 -0.0883  0.2191 -0.1651
    1DPPC   NC317329  14.528  15.831   2.260 -0.2057 -0.1298 -0.2078
    1DPPC   PO417330  14.125  15.815   2.418  0.0737  0.1623 -0.2811
    1DPPC   GL117331  13.972  15.816   2.755 -0.1286  0.0825  0.2529
    1DPPC   GL217332  13.760  15.636   2.872 -0.0469  0.0672  0.1844
    1DPPC   C1A17333  14.097  16.120   3.054 -0.1856 -0.1480 -0.0856
    1DPPC   C2A17334  13.978  16.289   3.373 -0.1760 -0.1815  0.0001
    1DPPC   C3A17335  13.753  16.179   3.604 -0.0570 -0.0088  0.0303
    1DPPC   C4A17336  13.678  15.780   3.909  0.1263 -0.1947 -0.0086
    1DPPC   C1B17337  13.662  15.900   3.145 -0.0629 -0.0958  0.2091
    1DPPC   C2B17338  13.490  16.319   3.213  0.1133  0.0225 -0.0543
    1DPPC   C3B17339  13.294  16.572   3.556  0.0741 -0.3619 -0.2460
    1DPPC   C4B17340  13.168  16.638   4.063 -0.0936 -0.0910  0.0590
    1DPPC   NC317341  12.587  19.080   2.509 -0.0219 -0.2441  0.0604
    1DPPC   PO417342  12.788  18.683   2.404  0.3789  0.0121  0.3093
    1DPPC   GL117343  12.799  18.597   2.770 -0.0155 -0.1870 -0.1850
    1DPPC   GL217344  12.589  18.816   2.887 -0.3112 -0.0035  0.0056
    1DPPC   C1A17345  12.782  18.414   3.143 -0.2368  0.1213 -0.0440
    1DPPC   C2A17346  12.694  18.333   3.523  0.3050  0.0132  0.1919
    1DPPC   C3A17347  12.709  18.243   3.968 -0.0519 -0.1250 -0.0075
    1DPPC   C4A17348  12.610  18.236   4.395  0.2076  0.0336  0.0225
    1DPPC   C1B17349  12.468  18.781   3.394  0.1288 -0.3713  0.0117
    1DPPC   C2B17350  12.414  18.637   3.848  0.1762 -0.0393 -0.0278
    1DPPC   C3B17351  12.224  18.853   4.148 -0.0460 -0.0947 -0.1117
    1DPPC   C4B17352  12.221  18.763   4.565  0.1519  0.0486  0.0181
    1DPPC   NC317353  18.472  16.369   2.124 -0.0585 -0.0616  0.1800
    1DPPC   PO417354  18.085  16.101   2.013  0.2541 -0.1624  0.1153
    1DPPC   GL117355  18.235  16.000   2.432 -0.0176  0.0001  0.0699
    1DPPC   GL217356  18.541  15.925   2.411  0.0536  0.0003 -0.2332
    1DPPC   C1A17357  18.190  16.096   2.819  0.1537  0.0459 -0.0332
    1DPPC   C2A17358  18.213  16.094   3.217  0.1883 -0.1923  0.1285
    1DPPC   C3A17359  18.232  16.068   3.705  0.1295 -0.0909  0.1800
    1DPPC   C4A17360  18.313  16.035   4.193  0.0734  0.4775  0.0123
    1DPPC   C1B17361  18.678  15.976   2.755 -0.2268 -0.1817 -0.0695
    1DPPC   C2B17362  18.714  16.036   3.149 -0.1617 -0.0591 -0.1234
    1DPPC   C3B17363  18.830  16.011   3.511  0.1365 -0.2850  0.0300
    1DPPC   C4B17364  18.738  16.060   3.911  0.3350 -0.0158  0.2546
    1DPPC   NC317365  14.176  10.663   2.994  0.2909  0.0557 -0.2730
    1DPPC   PO417366  13.824  10.743   3.194  0.0290 -0.3411  0.0967
    1DPPC   GL117367  14.055  10.851   3.540 -0.0288 -0.1089 -0.3079
    1DPPC   GL217368  13.986  11.191   3.522 -0.0788 -0.3526 -0.1502
    1DPPC   C1A17369  14.187  10.963   3.960 -0.1319 -0.2932 -0.0576
    1DPPC   C2A17370  14.261  11.072   4.388 -0.1018 -0.3717 -0.1130
    1DPPC   C3A17371  14.383  11.285   4.739 -0.0023  0.2128  0.1208
    1DPPC   C4A17372  14.801  11.248   4.928  0.1416 -0.1046 -0.2138
    1DPPC   C1B17373  14.095  11.448   3.936 -0.1762 -0.3197  0.2555
    1DPPC   C2B17374  14.154  11.552   4.333 -0.0996  0.3642  0.0224
    1DPPC   C3B17375  14.240  11.744   4.687 -0.0426 -0.1357  0.2698
    1DPPC   C4B17376  14.429  11.649   5.152  0.1432  0.1199 -0.1534
    1DPPC   NC317377   9.034  14.886   2.210  0.2239 -0.0215  0.0333
    1DPPC   PO417378   9.102  14.696   2.654 -0.2242  0.2569 -0.2048
    1DPPC   GL117379   9.013  14.956   3.011  0.3012  0.1967 -0.2283
    1DPPC   GL217380   9.323  15.015   3.012  0.0029 -0.0534  0.1381
    1DPPC   C1A17381   9.027  15.328   3.274 -0.2246  0.1378 -0.0380
    1DPPC   C2A17382   9.124  15.279   3.645 -0.0938  0.0584  0.2736
    1DPPC   C3A17383   9.144  15.422   4.004  0.0034  0.1679  0.1554
    1DPPC   C4A17384   9.058  15.586   4.402 -0.0058 -0.2394 -0.0186
    1DPPC   C1B17385   9.507  15.047   3.402  0.0129 -0.3360 -0.2100
    1DPPC   C2B17386   9.581  15.142   3.813 -0.1630  0.0553 -0.0205
    1DPPC   C3B17387   9.629  15.219   4.097  0.0261  0.0660 -0.1660
    1DPPC   C4B17388   9.723  14.869   4.468 -0.0637  0.2012  0.0042
    1DPPC   NC317389   9.666  22.846   2.258 -0.0231  0.0845 -0.3838
    1DPPC   PO417390   9.545  22.387   2.152 -0.0986  0.1001 -0.1167
    1DPPC   GL117391   9.315  22.260   2.567 -0.1387  0.1115  0.0820
    1DPPC   GL217392   9.457  21.973   2.751  0.0471  0.2838  0.0477
    1DPPC   C1A17393   8.974  22.315   2.877 -0.1720  0.0495  0.1967
    1DPPC   C2A17394   8.725  22.336   3.220  0.2050 -0.3509  0.0304
    1DPPC   C3A17395   8.722  22.396   3.649  0.0143 -0.1050  0.4970
    1DPPC   C4A17396   8.693  22.492   4.153 -0.0571 -0.3227 -0.0716
    1DPPC   C1B17397   9.209  21.949   3.161 -0.0464  0.2530  0.1717
    1DPPC   C2B17398   9.133  22.168   3.515 -0.1329  0.0962 -0.2180
    1DPPC   C3B17399   9.093  22.395   3.953 -0.1650  0.0305 -0.0129
    1DPPC   C4B17400   9.219  22.425   4.296  0.2561 -0.0755 -0.1968
    1DPPC   NC317401  19.811  11.329   2.052 -0.1620 -0.0427  0.3376
    1DPPC   PO417402  20.070  11.640   2.274  0.0246 -0.2027  0.0280
    1DPPC   GL117403  19.925  11.575   2.662 -0.0576  0.0866  0.2192
    1DPPC   GL217404  19.720  11.281   2.572 -0.0041  0.0068  0.0813
    1DPPC   C1A17405  20.012  11.517   3.117 -0.1691  0.1993 -0.0175
    1DPPC   C2A17406  20.105  11.544   3.495  0.0620 -0.4089  0.3219
    1DPPC   C3A17407  20.174  11.619   3.913 -0.1158 -0.1836 -0.1671
    1DPPC   C4A17408  19.922  11.611   4.276 -0.2115 -0.1469 -0.2806
    1DPPC   C1B17409  19.915  11.095   2.886  0.2517  0.1163  0.1414
    1DPPC   C2B17410  19.980  11.070   3.377 -0.2115  0.0844 -0.1818
    1DPPC   C3B17411  20.113  11.103   3.862  0.1279  0.3032 -0.0445
    1DPPC   C4B17412  20.286  10.919   4.250 -0.1789 -0.4009  0.0627
    1DPPC   NC317413  16.905  17.565   2.029  0.2711 -0.2278 -0.0715
    1DPPC   PO417414  16.546  17.704   2.158 -0.1514  0.0842 -0.0010
    1DPPC   GL117415  16.556  17.772   2.574 -0.1918 -0.0333 -0.2370
    1DPPC   GL217416  16.803  18.036   2.474  0.0028  0.1333 -0.1365
    1DPPC   C1A17417  16.612  17.643   3.028  0.2235 -0.0923 -0.2925
    1DPPC   C2A17418  16.727  17.714   3.462 -0.3741 -0.0513 -0.2423
    1DPPC   C3A17419  16.866  17.752   3.789  0.1292 -0.4506 -0.2219
    1DPPC   C4A17420  16.782  17.750   4.264 -0.0211 -0.0865  0.1602
    1DPPC   C1B17421  16.944  18.020   2.905  0.1863 -0.4659 -0.1196
    1DPPC   C2B17422  17.075  17.973   3.247 -0.1398  0.1936  0.0790
    1DPPC   C3B17423  17.222  18.032   3.629  0.2478 -0.3841  0.2708
    1DPPC   C4B17424  17.264  18.015   4.123  0.1964  0.2157  0.0836
    1DPPC   NC317425  27.956  28.044   2.711  0.0004  0.0912  0.0482
    1DPPC   PO417426  28.296  28.080   3.051  0.1117  0.1361  0.1010
    1DPPC   GL117427  28.378  28.220   3.421  0.2849  0.1317  0.0575
    1DPPC   GL217428  28.123  28.504   3.403  0.2076  0.1438  0.2039
    1DPPC   C1A17429  28.502  28.257   3.947 -0.1145  0.0999  0.0532
    1DPPC   C2A17430  28.503  28.179   4.379 -0.0773  0.3429  0.0982
    1DPPC   C3A17431  28.565  28.020   4.679  0.1488 -0.1568 -0.0837
    1DPPC   C4A17432  28.992  27.805   4.870  0.1158  0.2867 -0.0628
    1DPPC   C1B17433  28.340  28.681   3.751  0.1850  0.2585 -0.0936
    1DPPC   C2B17434  28.395  28.765   4.189  0.2082 -0.2504 -0.0790
    1DPPC   C3B17435  28.431  28.945   4.691  0.0509  0.1074  0.2221
    1DPPC   C4B17436  28.780  29.095   4.971  0.1027  0.1212 -0.0023
    1DPPC   NC317437  15.656   9.949   2.348 -0.0205 -0.0574 -0.3779
    1DPPC   PO417438  15.600   9.662   2.694 -0.0691  0.0577  0.0266
    1DPPC   GL117439  15.524  10.027   3.036  0.0634 -0.1084  0.1344
    1DPPC   GL217440  15.673  10.304   2.828 -0.1884  0.1701 -0.1369
    1DPPC   C1A17441  15.770   9.997   3.398 -0.1060  0.0886 -0.2544
    1DPPC   C2A17442  15.800   9.971   3.807  0.1303  0.1084  0.1181
    1DPPC   C3A17443  15.979   9.994   4.221  0.0400  0.3772 -0.0453
    1DPPC   C4A17444  16.384  10.206   4.499  0.2524 -0.0591 -0.0312
    1DPPC   C1B17445  15.929  10.437   3.265  0.3110 -0.0074  0.2169
    1DPPC   C2B17446  16.089  10.363   3.637 -0.3313  0.1366 -0.2236
    1DPPC   C3B17447  16.210  10.352   3.992  0.0762 -0.2208 -0.2951
    1DPPC   C4B17448  16.399  10.688   4.340  0.0656  0.1675  0.1440
    1DPPC   NC317449  13.341  19.599   2.524  0.0819  0.0336  0.2220
    1DPPC   PO417450  13.626  19.993   2.583 -0.1172 -0.1060  0.0366
    1DPPC   GL117451  13.482  20.258   2.927  0.0102 -0.3817 -0.1749
    1DPPC   GL217452  13.678  20.286   3.107 -0.1099 -0.1808  0.0280
    1DPPC   C1A17453  13.238  20.491   3.253 -0.1703  0.1004 -0.0381
    1DPPC   C2A17454  13.171  20.435   3.701  0.2116 -0.0283 -0.0972
    1DPPC   C3A17455  13.019  20.468   4.160 -0.1387 -0.5378 -0.1977
    1DPPC   C4A17456  12.927  20.235   4.586  0.2312 -0.1625 -0.0295
    1DPPC   C1B17457  13.610  20.305   3.593 -0.1704  0.0385 -0.1796
    1DPPC   C2B17458  13.532  20.220   4.002 -0.1469 -0.2454 -0.1632
    1DPPC   C3B17459  13.443  20.276   4.380  0.3318 -0.0330  0.0279
    1DPPC   C4B17460  13.437  20.243   4.829  0.0366 -0.1024  0.0617
    1DPPC   NC317461  14.598  17.491   2.334  0.0896 -0.0802  0.1038
    1DPPC   PO417462  14.128  17.468   2.404 -0.1968 -0.0831 -0.1535
    1DPPC   GL117463  14.037  17.623   2.845  0.2662 -0.0849 -0.0423
    1DPPC   GL217464  14.324  17.828   2.898 -0.0186 -0.0968  0.3057
    1DPPC   C1A17465  13.916  17.571   3.301 -0.2105  0.0686  0.2027
    1DPPC   C2A17466  13.975  17.546   3.719  0.2987 -0.2425 -0.0554
    1DPPC   C3A17467  13.783  17.485   4.025  0.0220  0.2214 -0.2387
    1DPPC   C4A17468  13.691  17.253   4.450 -0.2430  0.2158  0.0721
    1DPPC   C1B17469  14.337  17.909   3.270  0.0266  0.2770  0.0788
    1DPPC   C2B17470  14.356  17.866   3.679  0.1339  0.0582  0.0378
    1DPPC   C3B17471  14.199  17.912   4.109 -0.0388  0.0093  0.2287
    1DPPC   C4B17472  14.145  18.006   4.606 -0.2579  0.0437  0.0036
    1DPPC   NC317473  14.758  16.477   2.365  0.1119  0.1616  0.1245
    1DPPC   PO417474  14.312  16.291   2.233  0.2402 -0.1158  0.4120
    1DPPC   GL117475  14.431  16.181   2.644 -0.2536  0.3536  0.0708
    1DPPC   GL217476  14.655  15.884   2.730 -0.1292  0.1613 -0.1237
    1DPPC   C1A17477  14.541  16.232   3.029 -0.1671 -0.1749 -0.3476
    1DPPC   C2A17478  14.429  16.178   3.475 -0.1654  0.2579 -0.1324
    1DPPC   C3A17479  14.542  16.241   3.880 -0.2632  0.1495 -0.0115
    1DPPC   C4A17480  14.365  16.119   4.373 -0.1956 -0.2748  0.0118
    1DPPC   C1B17481  14.615  15.753   3.108 -0.0025  0.0367  0.2108
    1DPPC   C2B17482  14.630  15.765   3.502  0.3949  0.3727 -0.2271
    1DPPC   C3B17483  14.526  15.722   3.941  0.0397  0.1500  0.0266
    1DPPC   C4B17484  14.591  15.673   4.440  0.1328  0.0255 -0.0388
    1DPPC   NC317485  13.377  10.008   3.088 -0.0386  0.1407  0.0667
    1DPPC   PO417486  13.366   9.486   3.072 -0.0778  0.0375 -0.1270
    1DPPC   GL117487  13.209   9.656   3.427 -0.1641  0.0152 -0.1368
    1DPPC   GL217488  12.994   9.565   3.653 -0.1160 -0.0627 -0.2334
    1DPPC   C1A17489  13.354  10.005   3.768  0.1625  0.0243  0.1128
    1DPPC   C2A17490  13.350  10.122   4.225 -0.0168  0.0622 -0.3505
    1DPPC   C3A17491  13.533  10.160   4.618  0.0160 -0.2243 -0.0353
    1DPPC   C4A17492  13.684  10.318   4.995 -0.2793  0.2872  0.1249
    1DPPC   C1B17493  13.057   9.753   4.038 -0.1677  0.0650 -0.2040
    1DPPC   C2B17494  12.949   9.848   4.441 -0.0603 -0.0592  0.0776
    1DPPC   C3B17495  13.072   9.992   4.826  0.0564  0.0386  0.2235
    1DPPC   C4B17496  13.116  10.117   5.244 -0.2339 -0.0039  0.2465
    1DPPC   NC317497  16.499  12.978   1.711 -0.0369  0.0915  0.1081
    1DPPC   PO417498  16.837  13.044   1.993  0.3370 -0.1187  0.2056
    1DPPC   GL117499  16.828  13.024   2.460 -0.0325 -0.0027 -0.0201
    1DPPC   GL217500  16.982  13.211   2.631 -0.1009  0.1184 -0.3949
    1DPPC   C1A17501  16.584  13.020   2.849 -0.1177  0.0142 -0.0156
    1DPPC   C2A17502  16.465  13.050   3.185 -0.0353  0.0723 -0.0824
    1DPPC   C3A17503  16.540  12.980   3.595 -0.2038  0.0429 -0.0516
    1DPPC   C4A17504  16.483  12.993   3.997  0.0134  0.3537 -0.1960
    1DPPC   C1B17505  16.943  13.175   3.143  0.0663  0.0400 -0.2376
    1DPPC   C2B17506  16.962  13.228   3.548 -0.1332  0.0267 -0.0521
    1DPPC   C3B17507  17.001  13.008   3.933  0.0404  0.2107  0.0354
    1DPPC   C4B17508  17.088  13.006   4.315 -0.1437  0.0644  0.1211
    1DPPC   NC317509  15.327  15.729   2.211  0.0138  0.0688  0.1443
    1DPPC   PO417510  15.655  15.932   2.455 -0.1370  0.2284 -0.3209
    1DPPC   GL117511  15.863  16.025   2.739 -0.1369  0.2389  0.0059
    1DPPC   GL217512  16.083  16.209   2.638  0.0425  0.3700 -0.1136
    1DPPC   C1A17513  16.033  16.088   3.183 -0.3677  0.1833  0.2678
    1DPPC   C2A17514  15.984  16.051   3.643  0.1283  0.1772  0.0399
    1DPPC   C3A17515  15.848  16.153   4.023 -0.1222 -0.0314  0.0176
    1DPPC   C4A17516  15.789  16.233   4.453 -0.0871 -0.0823 -0.0258
    1DPPC   C1B17517  16.384  16.315   2.880  0.0846  0.2747 -0.0050
    1DPPC   C2B17518  16.425  16.351   3.301  0.1986 -0.0264  0.2586
    1DPPC   C3B17519  16.353  16.377   3.729 -0.1580 -0.0784 -0.1790
    1DPPC   C4B17520  16.233  16.495   4.108 -0.1492  0.2220  0.1021
    1DPPC   NC317521  14.429  21.532   2.506 -0.1331 -0.1820  0.2777
    1DPPC   PO417522  14.629  21.792   2.534  0.0777  0.3945 -0.1565
    1DPPC   GL117523  14.807  21.710   2.932 -0.0004 -0.0756  0.0592
    1DPPC   GL217524  14.612  21.487   3.016  0.2041 -0.1696 -0.1669
    1DPPC   C1A17525  15.021  21.558   3.280 -0.0415 -0.1085 -0.2130
    1DPPC   C2A17526  15.147  21.577   3.716  0.0288 -0.1310 -0.0404
    1DPPC   C3A17527  14.901  21.624   4.144 -0.2083 -0.0674  0.1185
    1DPPC   C4A17528  15.085  21.777   4.478  0.0558 -0.1198 -0.3235
    1DPPC   C1B17529  14.578  21.339   3.394  0.0280 -0.3405 -0.1000
    1DPPC   C2B17530  14.453  21.302   3.798  0.0907  0.0803  0.0598
    1DPPC   C3B17531  14.530  21.217   4.165  0.2498 -0.2953  0.2354
    1DPPC   C4B17532  14.691  21.405   4.600  0.1307 -0.0633  0.2715
    1DPPC   NC317533  13.335  18.769   2.334 -0.0317  0.1603 -0.1644
    1DPPC   PO417534  13.146  19.186   2.377 -0.0866 -0.2483  0.0189
    1DPPC   GL117535  13.028  19.039   2.734 -0.3863  0.1408 -0.1298
    1DPPC   GL217536  12.964  19.260   2.900 -0.0244  0.2749 -0.1998
    1DPPC   C1A17537  13.043  18.828   3.126  0.1281 -0.2641 -0.0173
    1DPPC   C2A17538  12.987  18.861   3.501  0.2001  0.2794 -0.1398
    1DPPC   C3A17539  12.860  18.816   3.935  0.0541  0.0447  0.2074
    1DPPC   C4A17540  12.911  18.636   4.281  0.2073  0.0193 -0.3205
    1DPPC   C1B17541  13.108  19.329   3.309  0.0032 -0.1468 -0.0118
    1DPPC   C2B17542  13.128  19.310   3.739 -0.0279  0.0207 -0.1645
    1DPPC   C3B17543  13.009  19.291   4.196  0.2335  0.0961  0.1277
    1DPPC   C4B17544  12.648  19.105   4.384 -0.0269  0.0076  0.1800
    1DPPC   NC317545  10.478  15.771   2.399 -0.2510  0.2023 -0.1755
    1DPPC   PO417546  10.386  16.193   2.425  0.0411  0.0548  0.1793
    1DPPC   GL117547  10.517  16.098   2.786 -0.1067  0.1113  0.2112
    1DPPC   GL217548  10.718  15.763   2.809 -0.0375  0.0900 -0.0080
    1DPPC   C1A17549  10.366  15.967   3.276 -0.1864  0.0559  0.1192
    1DPPC   C2A17550  10.346  15.873   3.792  0.0498 -0.3178 -0.1072
    1DPPC   C3A17551  10.447  15.937   4.250 -0.0969  0.2274 -0.2671
    1DPPC   C4A17552  10.568  15.625   4.533  0.1262  0.1157  0.2398
    1DPPC   C1B17553  10.618  15.522   3.200 -0.0006 -0.1978  0.2762
    1DPPC   C2B17554  10.524  15.461   3.591 -0.1112  0.0165 -0.0517
    1DPPC   C3B17555  10.543  15.383   4.014 -0.0738  0.1132 -0.3777
    1DPPC   C4B17556  10.157  15.230   4.308  0.3499  0.1774 -0.0779
    1DPPC   NC317557  21.061  16.370   2.165  0.0979  0.0962 -0.3172
    1DPPC   PO417558  21.458  16.338   2.309 -0.1667 -0.1219  0.0018
    1DPPC   GL117559  21.679  16.420   2.557 -0.0960  0.0772 -0.1396
    1DPPC   GL217560  22.100  16.303   2.557 -0.1188  0.0400  0.0454
    1DPPC   C1A17561  21.843  16.449   2.974 -0.1418 -0.2187 -0.2473
    1DPPC   C2A17562  22.154  16.541   3.276  0.0871 -0.1223 -0.0390
    1DPPC   C3A17563  22.345  16.417   3.692  0.1872  0.0343  0.0382
    1DPPC   C4A17564  22.508  16.645   4.068 -0.0903  0.1318  0.1200
    1DPPC   C1B17565  22.151  15.931   2.869 -0.0139  0.0596 -0.1171
    1DPPC   C2B17566  22.029  15.619   3.123  0.1714  0.0396  0.0604
    1DPPC   C3B17567  22.134  15.446   3.524  0.2748  0.1353 -0.0221
    1DPPC   C4B17568  22.527  15.349   3.762 -0.0947 -0.0359 -0.1173
    1DPPC   NC317569  18.770  17.239   2.053 -0.0832 -0.0176  0.1786
    1DPPC   PO417570  18.688  16.874   2.197 -0.2548 -0.0870  0.1961
    1DPPC   GL117571  18.907  17.105   2.553 -0.0414  0.2068 -0.2191
    1DPPC   GL217572  18.956  16.886   2.725 -0.1008  0.0711  0.1833
    1DPPC   C1A17573  18.994  17.378   2.930  0.1001  0.0048 -0.0281
    1DPPC   C2A17574  19.072  17.427   3.316 -0.0840 -0.0509 -0.0603
    1DPPC   C3A17575  19.058  17.443   3.754  0.1442 -0.0714  0.3268
    1DPPC   C4A17576  19.250  17.341   4.165  0.0096 -0.0127  0.0168
    1DPPC   C1B17577  18.963  16.986   3.227 -0.0321 -0.0660  0.3102
    1DPPC   C2B17578  19.157  16.932   3.586  0.2081  0.2455  0.0795
    1DPPC   C3B17579  19.286  16.860   3.976  0.1392  0.1371 -0.0940
    1DPPC   C4B17580  19.530  16.879   4.310  0.2220  0.1452 -0.0034
    1DPPC   NC317581  21.463  16.713   1.538 -0.1683 -0.2949  0.1658
    1DPPC   PO417582  21.378  16.679   1.920  0.2103 -0.2517 -0.0766
    1DPPC   GL117583  21.508  16.832   2.408 -0.4626  0.5236  0.2955
    1DPPC   GL217584  21.293  16.723   2.608  0.0595  0.0494  0.1092
    1DPPC   C1A17585  21.719  16.965   2.775  0.2687 -0.3589 -0.1231
    1DPPC   C2A17586  21.942  16.970   3.152  0.0380  0.0537  0.2057
    1DPPC   C3A17587  21.876  16.918   3.576 -0.3064  0.0892  0.0464
    1DPPC   C4A17588  21.975  16.690   3.823 -0.0280  0.1477 -0.1248
    1DPPC   C1B17589  21.340  16.701   3.015 -0.0800 -0.1033  0.0859
    1DPPC   C2B17590  21.528  16.658   3.404  0.0381  0.0921 -0.3488
    1DPPC   C3B17591  21.504  16.778   3.843  0.2892  0.0194 -0.3372
    1DPPC   C4B17592  21.656  16.908   4.215  0.2555  0.0358 -0.0481
    1DPPC   NC317593  15.392  17.497   2.064  0.0980  0.1841 -0.2079
    1DPPC   PO417594  15.064  17.781   2.352  0.3949  0.0243  0.0260
    1DPPC   GL117595  15.114  17.840   2.748  0.1880  0.2037 -0.1354
    1DPPC   GL217596  14.847  18.055   2.957 -0.2372  0.3621  0.0692
    1DPPC   C1A17597  15.496  17.765   2.919  0.0765 -0.0159  0.2246
    1DPPC   C2A17598  15.671  17.598   3.308  0.2291 -0.3117 -0.0300
    1DPPC   C3A17599  15.721  17.494   3.722  0.1571  0.3292 -0.1345
    1DPPC   C4A17600  15.894  17.568   4.182 -0.0965  0.0201  0.3086
    1DPPC   C1B17601  14.901  17.834   3.349 -0.1211  0.1674  0.1511
    1DPPC   C2B17602  14.842  17.877   3.809  0.0073 -0.1772 -0.2557
    1DPPC   C3B17603  14.946  17.685   4.124  0.2980 -0.0305 -0.1373
    1DPPC   C4B17604  14.913  17.485   4.487 -0.1960 -0.0712  0.2116
    1DPPC   NC317605  20.582  10.936   2.211 -0.2984  0.0997 -0.1424
    1DPPC   PO417606  21.002  11.029   2.368  0.4062  0.0241 -0.2187
    1DPPC   GL117607  20.873  11.153   2.819  0.0554  0.2958  0.1888
    1DPPC   GL217608  20.804  11.389   2.851  0.0178  0.2470 -0.0616
    1DPPC   C1A17609  20.910  11.215   3.300 -0.3213 -0.1722  0.0110
    1DPPC   C2A17610  20.972  11.313   3.685  0.1286  0.1008  0.0754
    1DPPC   C3A17611  21.143  11.383   4.055 -0.0858  0.1546 -0.0865
    1DPPC   C4A17612  21.407  11.097   4.231 -0.1888 -0.2750 -0.0413
    1DPPC   C1B17613  21.039  11.647   3.155 -0.2005 -0.1051 -0.1149
    1DPPC   C2B17614  21.110  11.789   3.532  0.1791  0.2086  0.0723
    1DPPC   C3B17615  21.338  11.920   3.916 -0.2447  0.0959  0.0345
    1DPPC   C4B17616  21.513  12.033   4.330 -0.1005  0.0659 -0.3401
    1DPPC   NC317617  13.900   7.529   3.241  0.4390  0.0046  0.2888
    1DPPC   PO417618  13.781   7.826   3.613 -0.1284  0.0978 -0.0929
    1DPPC   GL117619  14.102   7.807   4.027 -0.0134  0.2417  0.2036
    1DPPC   GL217620  14.293   8.120   4.105  0.2370 -0.0493 -0.3574
    1DPPC   C1A17621  14.211   7.804   4.465  0.0328 -0.2839 -0.1164
    1DPPC   C2A17622  14.328   7.822   4.880 -0.1882 -0.2151  0.0613
    1DPPC   C3A17623  14.441   7.687   5.265 -0.0153  0.0287 -0.2529
    1DPPC   C4A17624  14.771   7.372   5.478  0.1202  0.3401  0.3941
    1DPPC   C1B17625  14.248   8.332   4.525 -0.0899  0.1737  0.1163
    1DPPC   C2B17626  14.236   8.426   4.972 -0.1440  0.1423 -0.1039
    1DPPC   C3B17627  14.256   8.547   5.493  0.3349  0.0082 -0.0384
    1DPPC   C4B17628  14.070   8.689   5.756 -0.0624  0.2013 -0.0142
    1DPPC   NC317629  11.695  20.478   2.065  0.0993  0.4309  0.0987
    1DPPC   PO417630  11.799  20.355   2.404 -0.0300  0.1034 -0.1644
    1DPPC   GL117631  11.597  20.681   2.659  0.1090  0.1518 -0.1142
    1DPPC   GL217632  11.670  20.654   3.047 -0.0265 -0.1187  0.1930
    1DPPC   C1A17633  11.191  20.681   2.884 -0.1984 -0.1960 -0.0285
    1DPPC   C2A17634  11.080  20.531   3.184 -0.1195 -0.1142  0.0640
    1DPPC   C3A17635  11.082  20.530   3.595  0.0089 -0.0297  0.2181
    1DPPC   C4A17636  11.056  20.574   4.041 -0.0776  0.1388  0.1653
    1DPPC   C1B17637  11.982  20.780   3.405 -0.0662 -0.3737 -0.2324
    1DPPC   C2B17638  11.746  20.800   3.834 -0.2998 -0.0861  0.0081
    1DPPC   C3B17639  11.460  20.861   4.201 -0.0390 -0.0461 -0.0041
    1DPPC   C4B17640  11.258  20.774   4.588 -0.1901 -0.4002  0.0645
    1DPPC   NC317641  26.061  17.651   1.904  0.0958 -0.1145 -0.3797
    1DPPC   PO417642  25.691  17.341   1.966  0.0497  0.4172  0.0320
    1DPPC   GL117643  25.489  17.484   2.331 -0.2028 -0.0321  0.1402
    1DPPC   GL217644  25.261  17.240   2.360  0.0666 -0.2757 -0.1083
    1DPPC   C1A17645  25.597  17.395   2.771 -0.0289  0.0998  0.0189
    1DPPC   C2A17646  25.773  17.384   3.189  0.1814 -0.1107  0.0283
    1DPPC   C3A17647  25.655  17.556   3.532 -0.1240 -0.1079  0.0534
    1DPPC   C4A17648  25.682  17.340   3.999  0.3667 -0.2110 -0.2589
    1DPPC   C1B17649  25.306  17.016   2.640  0.1777 -0.1404 -0.0707
    1DPPC   C2B17650  25.414  17.045   3.077  0.0620 -0.1415  0.0137
    1DPPC   C3B17651  25.543  17.010   3.489 -0.0774  0.1163 -0.1579
    1DPPC   C4B17652  25.569  16.721   3.761 -0.2196  0.2372 -0.0537
    1DPPC   NC317653  17.881  18.660   2.184 -0.1034  0.1407  0.0180
    1DPPC   PO417654  17.505  19.046   2.129  0.0400  0.2146 -0.2468
    1DPPC   GL117655  17.486  18.768   2.534  0.0921  0.0858  0.1093
    1DPPC   GL217656  17.733  18.537   2.643 -0.1420 -0.0350  0.0143
    1DPPC   C1A17657  17.560  18.885   3.008 -0.0706  0.0229  0.0459
    1DPPC   C2A17658  17.605  18.780   3.376 -0.2489  0.2563 -0.4456
    1DPPC   C3A17659  17.748  18.821   3.758  0.2203  0.3241  0.2925
    1DPPC   C4A17660  17.681  18.837   4.185 -0.0640 -0.3268  0.2404
    1DPPC   C1B17661  17.719  18.394   3.055  0.0903  0.0803  0.3470
    1DPPC   C2B17662  17.787  18.347   3.531 -0.1539  0.0580 -0.1077
    1DPPC   C3B17663  17.883  18.343   3.969  0.1162  0.0745 -0.1711
    1DPPC   C4B17664  18.149  18.576   4.208 -0.1235  0.4012  0.0262
    1DPPC   NC317665  14.709  12.463   2.759 -0.1631  0.4636  0.1767
    1DPPC   PO417666  14.647  12.081   2.887  0.2508 -0.1913 -0.0178
    1DPPC   GL117667  14.679  11.806   3.189  0.2604 -0.0978 -0.0384
    1DPPC   GL217668  14.977  11.623   3.032 -0.1647 -0.0672  0.2914
    1DPPC   C1A17669  14.779  11.834   3.644 -0.2353  0.1462 -0.0049
    1DPPC   C2A17670  14.840  11.892   4.130  0.1799 -0.0192 -0.1778
    1DPPC   C3A17671  15.018  12.066   4.512  0.0567  0.0230 -0.0360
    1DPPC   C4A17672  15.093  12.008   4.918 -0.3092  0.0400 -0.0918
    1DPPC   C1B17673  15.061  11.500   3.358 -0.2291  0.0512 -0.2134
    1DPPC   C2B17674  15.185  11.518   3.740 -0.0125  0.0428 -0.1486
    1DPPC   C3B17675  15.227  11.507   4.128  0.0297  0.0933  0.2553
    1DPPC   C4B17676  15.230  11.277   4.534  0.1481  0.2149 -0.0584
    1DPPC   NC317677  20.410  15.390   1.659  0.2254 -0.1602  0.0393
    1DPPC   PO417678  20.556  15.125   1.916 -0.1773  0.1532 -0.0220
    1DPPC   GL117679  20.612  15.313   2.367 -0.1793 -0.0707 -0.0932
    1DPPC   GL217680  20.910  15.406   2.384  0.3258  0.0584 -0.0291
    1DPPC   C1A17681  20.511  15.373   2.782  0.4201  0.2025  0.2656
    1DPPC   C2A17682  20.546  15.490   3.165 -0.1835  0.0734 -0.0273
    1DPPC   C3A17683  20.713  15.424   3.564 -0.1018  0.0235 -0.2824
    1DPPC   C4A17684  20.949  15.500   3.871 -0.0851 -0.2650 -0.1513
    1DPPC   C1B17685  21.039  15.447   2.836  0.1696  0.1246 -0.1188
    1DPPC   C2B17686  21.133  15.456   3.256  0.1142 -0.0816  0.0108
    1DPPC   C3B17687  21.250  15.821   3.568 -0.1316  0.3299 -0.1124
    1DPPC   C4B17688  21.347  15.887   3.954  0.1720 -0.0763  0.1297
    1DPPC   NC317689  19.583  12.573   2.104 -0.1834 -0.1320  0.1650
    1DPPC   PO417690  19.351  12.269   2.132  0.0397  0.2418  0.0023
    1DPPC   GL117691  19.350  12.339   2.608 -0.3108  0.1442  0.0298
    1DPPC   GL217692  19.686  12.419   2.634 -0.2714 -0.0989 -0.1445
    1DPPC   C1A17693  19.167  12.297   2.961  0.0936 -0.0122 -0.2498
    1DPPC   C2A17694  19.290  12.358   3.371 -0.2697  0.6425 -0.1271
    1DPPC   C3A17695  19.299  12.330   3.762  0.1521  0.1889 -0.1770
    1DPPC   C4A17696  19.273  12.210   4.171  0.1925  0.0323 -0.1158
    1DPPC   C1B17697  19.770  12.367   3.026 -0.1194  0.2025  0.0145
    1DPPC   C2B17698  19.785  12.452   3.464  0.1523 -0.0144  0.0020
    1DPPC   C3B17699  19.822  12.386   3.807  0.4801 -0.0223 -0.0383
    1DPPC   C4B17700  19.848  12.456   4.221 -0.0037 -0.0835  0.1924
    1DPPC   NC317701   8.609  11.079   3.580 -0.2730 -0.1357 -0.0132
    1DPPC   PO417702   9.004  10.758   3.667  0.1838 -0.0218 -0.1681
    1DPPC   GL117703   9.169  11.040   3.992  0.1675  0.1491  0.0821
    1DPPC   GL217704   8.889  11.204   4.031 -0.3955  0.0740  0.2787
    1DPPC   C1A17705   9.390  10.966   4.220 -0.0150  0.0821 -0.1717
    1DPPC   C2A17706   9.433  10.993   4.583  0.0105 -0.2525  0.3219
    1DPPC   C3A17707   9.579  11.087   4.948 -0.0797 -0.1629 -0.1857
    1DPPC   C4A17708   9.522  11.085   5.488  0.2250 -0.2905  0.4096
    1DPPC   C1B17709   9.079  11.381   4.415  0.2245 -0.1085 -0.2492
    1DPPC   C2B17710   9.113  11.400   4.799 -0.1229 -0.0626 -0.0523
    1DPPC   C3B17711   8.935  11.640   5.125  0.2274  0.1758 -0.1606
    1DPPC   C4B17712   8.878  12.045   5.282  0.2349  0.2120  0.4882
    1DPPC   NC317713  19.125   9.576   2.599 -0.1345  0.3143  0.0307
    1DPPC   PO417714  19.416   9.241   2.522  0.0177  0.0909 -0.1338
    1DPPC   GL117715  19.314   9.191   2.948 -0.3340  0.1054 -0.1572
    1DPPC   GL217716  19.009   9.248   2.990  0.1359 -0.1810 -0.3142
    1DPPC   C1A17717  19.490   9.317   3.347  0.1160  0.1596  0.0028
    1DPPC   C2A17718  19.226   9.431   3.737 -0.1086 -0.2482  0.1031
    1DPPC   C3A17719  18.977   9.432   4.107  0.0686 -0.2798  0.2403
    1DPPC   C4A17720  18.905   9.540   4.509 -0.0516  0.1148  0.1288
    1DPPC   C1B17721  18.902   9.213   3.420  0.0191 -0.0904 -0.1801
    1DPPC   C2B17722  18.763   9.516   3.646 -0.1384 -0.0517 -0.2552
    1DPPC   C3B17723  18.907   9.882   3.804  0.0272  0.3837 -0.0530
    1DPPC   C4B17724  18.991   9.943   4.334 -0.0013 -0.2219 -0.2087
    1DPPC   NC317725  19.562  14.939   1.788 -0.1844  0.1151  0.1965
    1DPPC   PO417726  19.806  14.798   2.049 -0.0438  0.0158  0.0519
    1DPPC   GL117727  19.850  14.853   2.531 -0.0780 -0.2410 -0.1159
    1DPPC   GL217728  19.916  14.670   2.706  0.1347  0.3847 -0.0035
    1DPPC   C1A17729  19.677  15.103   2.892  0.0024  0.1315  0.1655
    1DPPC   C2A17730  19.728  15.105   3.295 -0.0571  0.1747  0.2808
    1DPPC   C3A17731  19.696  15.012   3.794  0.0138  0.1602  0.1399
    1DPPC   C4A17732  19.952  15.058   4.162 -0.1578 -0.1454  0.1372
    1DPPC   C1B17733  20.023  14.407   2.867  0.3815 -0.1673  0.2288
    1DPPC   C2B17734  20.235  14.288   3.131  0.0547 -0.1811  0.1472
    1DPPC   C3B17735  20.209  14.264   3.493  0.3099  0.1427  0.0270
    1DPPC   C4B17736  20.327  14.098   3.843  0.1061 -0.0613 -0.1010
    1DPPC   NC317737  16.059  17.824   2.276 -0.0293 -0.0106  0.1348
    1DPPC   PO417738  15.904  17.455   2.225  0.1144  0.0344 -0.0086
    1DPPC   GL117739  15.728  17.237   2.610  0.0144  0.1199 -0.1415
    1DPPC   GL217740  15.707  16.919   2.671 -0.0437  0.2719  0.1412
    1DPPC   C1A17741  15.381  17.257   2.989  0.1130 -0.2662  0.0074
    1DPPC   C2A17742  15.199  17.422   3.329  0.0970  0.2376  0.1012
    1DPPC   C3A17743  15.135  17.486   3.706 -0.0300  0.0988  0.3763
    1DPPC   C4A17744  15.382  17.411   4.078  0.2156  0.0658 -0.0461
    1DPPC   C1B17745  15.811  17.078   3.172 -0.0618  0.0791 -0.2808
    1DPPC   C2B17746  15.926  17.068   3.545 -0.0282 -0.0742 -0.2137
    1DPPC   C3B17747  15.872  17.092   4.004 -0.2339  0.0778  0.0713
    1DPPC   C4B17748  15.867  17.143   4.461 -0.2590  0.1181 -0.0753
    1DPPC   NC317749   7.687  27.050   2.599  0.0947  0.0112 -0.0974
    1DPPC   PO417750   7.869  26.642   2.544  0.0703  0.2623  0.2760
    1DPPC   GL117751   7.902  26.638   2.969 -0.1028 -0.0222  0.0692
    1DPPC   GL217752   8.073  26.763   3.176  0.2060 -0.1452 -0.4406
    1DPPC   C1A17753   8.033  26.301   3.308 -0.4576  0.1306 -0.2951
    1DPPC   C2A17754   8.035  26.437   3.843 -0.2526  0.0375  0.1086
    1DPPC   C3A17755   8.032  26.334   4.245  0.0484  0.0548 -0.0207
    1DPPC   C4A17756   7.912  26.083   4.504 -0.2686  0.0984 -0.1210
    1DPPC   C1B17757   8.301  26.620   3.525  0.0941 -0.2471 -0.1183
    1DPPC   C2B17758   8.617  26.519   3.955  0.1255 -0.0663 -0.0326
    1DPPC   C3B17759   8.714  26.672   4.278  0.0484 -0.3426  0.0173
    1DPPC   C4B17760   8.669  26.838   4.709 -0.1863 -0.0191 -0.1012
    1DPPC   NC317761  15.245  14.724   2.471  0.0089  0.3368 -0.2722
    1DPPC   PO417762  15.205  15.190   2.381 -0.0371 -0.0086  0.1168
    1DPPC   GL117763  15.251  15.116   2.788 -0.1155  0.1972  0.1312
    1DPPC   GL217764  15.100  14.886   2.948 -0.2814 -0.2311  0.3875
    1DPPC   C1A17765  15.428  15.211   3.189  0.0636  0.3080  0.0132
    1DPPC   C2A17766  15.308  15.193   3.634  0.1920 -0.3221 -0.2868
    1DPPC   C3A17767  15.410  15.364   4.052 -0.2134  0.1042  0.4164
    1DPPC   C4A17768  15.609  15.263   4.366  0.0589  0.2152 -0.2661
    1DPPC   C1B17769  15.012  14.871   3.343 -0.0940 -0.4160 -0.0931
    1DPPC   C2B17770  15.041  14.837   3.849 -0.0489 -0.0247  0.0714
    1DPPC   C3B17771  15.018  15.114   4.286  0.0757  0.1809  0.1012
    1DPPC   C4B17772  14.772  15.200   4.612  0.0370  0.1654  0.0175
    1DPPC   NC317773   4.699  14.735   2.338 -0.1140 -0.0566 -0.1045
    1DPPC   PO417774   4.845  15.089   2.173  0.0784  0.0780  0.0283
    1DPPC   GL117775   4.772  15.180   2.566 -0.1479 -0.0037  0.2254
    1DPPC   GL217776   4.844  15.000   2.875 -0.2073 -0.0297 -0.1053
    1DPPC   C1A17777   4.517  15.353   2.889  0.0395  0.0193  0.0879
    1DPPC   C2A17778   4.227  15.728   2.909  0.5165 -0.1842 -0.0899
    1DPPC   C3A17779   4.117  16.137   3.042 -0.1956 -0.2326 -0.0645
    1DPPC   C4A17780   4.150  16.427   3.499  0.0245 -0.1309  0.0030
    1DPPC   C1B17781   4.828  15.112   3.305 -0.0850 -0.1555 -0.1974
    1DPPC   C2B17782   4.615  15.213   3.594  0.4092 -0.1457  0.1926
    1DPPC   C3B17783   4.664  15.454   4.047 -0.0866 -0.0896 -0.0155
    1DPPC   C4B17784   4.605  15.542   4.361  0.1160 -0.1945  0.2720
    1DPPC   NC317785  20.833  20.193   2.148  0.0628 -0.1828 -0.0879
    1DPPC   PO417786  21.162  19.811   2.208 -0.0575 -0.3029 -0.2659
    1DPPC   GL117787  21.068  19.864   2.602  0.0673 -0.2100 -0.2027
    1DPPC   GL217788  20.770  19.799   2.817 -0.0321 -0.0784  0.1142
    1DPPC   C1A17789  21.257  19.921   3.016 -0.2750  0.0113 -0.0597
    1DPPC   C2A17790  21.485  19.685   3.455  0.0841 -0.0981  0.0320
    1DPPC   C3A17791  21.580  19.632   3.851  0.1969  0.1436  0.0296
    1DPPC   C4A17792  21.714  19.718   4.293 -0.0286 -0.1227 -0.0308
    1DPPC   C1B17793  20.662  19.931   3.247  0.2566  0.2642  0.3893
    1DPPC   C2B17794  20.521  20.024   3.720  0.0642 -0.0661  0.1445
    1DPPC   C3B17795  20.442  20.293   3.864 -0.1691 -0.1450  0.1144
    1DPPC   C4B17796  20.269  20.701   3.808  0.2639  0.0846 -0.0158
    1DPPC   NC317797  11.358  16.542   1.990  0.3067  0.3127 -0.2271
    1DPPC   PO417798  11.224  16.393   2.391  0.3870  0.3244  0.4187
    1DPPC   GL117799  10.861  16.478   2.714  0.2192 -0.0981  0.1475
    1DPPC   GL217800  10.569  16.621   2.726  0.1323  0.0520 -0.2037
    1DPPC   C1A17801  10.895  16.694   3.133  0.1415  0.0005  0.3719
    1DPPC   C2A17802  10.777  16.695   3.566  0.0113  0.0858 -0.0466
    1DPPC   C3A17803  10.793  16.776   4.001 -0.3775  0.1134 -0.0670
    1DPPC   C4A17804  10.858  16.933   4.461 -0.0083 -0.0378 -0.0241
    1DPPC   C1B17805  10.474  16.480   3.196  0.1507 -0.2580 -0.3253
    1DPPC   C2B17806  10.334  16.413   3.536 -0.0091 -0.0629  0.1699
    1DPPC   C3B17807  10.481  16.434   3.894 -0.0676  0.2299  0.0583
    1DPPC   C4B17808  10.465  16.614   4.394 -0.0691 -0.1552 -0.2415
    1DPPC   NC317809   9.989  12.614   2.824 -0.0289 -0.3090  0.0053
    1DPPC   PO417810  10.454  12.593   3.028 -0.1040 -0.1479  0.1282
    1DPPC   GL117811  10.250  12.626   3.346 -0.0172 -0.3289  0.0528
    1DPPC   GL217812   9.983  12.687   3.288 -0.0338  0.3949  0.1005
    1DPPC   C1A17813  10.221  12.765   3.727 -0.0626  0.2201 -0.2520
    1DPPC   C2A17814  10.320  12.833   4.079 -0.1866  0.2602  0.0869
    1DPPC   C3A17815  10.358  13.066   4.443 -0.0680  0.0251 -0.0031
    1DPPC   C4A17816  10.438  13.473   4.814  0.0157  0.0377 -0.1593
    1DPPC   C1B17817   9.653  12.468   3.562  0.2252  0.1750  0.1490
    1DPPC   C2B17818   9.644  12.304   3.982  0.0096  0.2270  0.1478
    1DPPC   C3B17819   9.672  12.429   4.380  0.1987  0.0865 -0.0921
    1DPPC   C4B17820   9.618  12.434   4.875 -0.0757  0.0913 -0.0240
    1DPPC   NC317821  17.130  12.614   2.229  0.0570 -0.1346  0.2533
    1DPPC   PO417822  16.959  12.174   2.245 -0.1573  0.0074 -0.1787
    1DPPC   GL117823  17.158  12.110   2.669  0.3445  0.0109 -0.0502
    1DPPC   GL217824  17.016  11.778   2.799  0.0920 -0.0379 -0.1304
    1DPPC   C1A17825  17.251  12.300   3.105  0.3039  0.0058 -0.1420
    1DPPC   C2A17826  17.342  12.371   3.505  0.1007 -0.1125  0.2869
    1DPPC   C3A17827  17.232  12.294   4.003 -0.2520 -0.1130  0.0238
    1DPPC   C4A17828  17.059  12.265   4.369  0.0858  0.0846 -0.4103
    1DPPC   C1B17829  17.288  11.740   3.138  0.2750 -0.1015 -0.2920
    1DPPC   C2B17830  17.156  11.573   3.481  0.0875 -0.0427 -0.0440
    1DPPC   C3B17831  17.036  11.235   3.835 -0.2257 -0.0443  0.0447
    1DPPC   C4B17832  17.233  11.155   4.215 -0.0315  0.1738 -0.0695
    1DPPC   NC317833  23.496  12.470   2.092 -0.0153 -0.1412  0.1735
    1DPPC   PO417834  23.234  12.643   2.404 -0.2349  0.0157  0.1057
    1DPPC   GL117835  23.396  12.870   2.795  0.0382 -0.0469  0.0658
    1DPPC   GL217836  23.620  13.115   2.739 -0.3554  0.3245  0.0706
    1DPPC   C1A17837  23.148  12.847   3.229 -0.0066  0.4380  0.1620
    1DPPC   C2A17838  23.271  12.772   3.666  0.1003  0.0103  0.0461
    1DPPC   C3A17839  23.281  12.487   3.969  0.1621  0.0752  0.0649
    1DPPC   C4A17840  23.000  12.295   4.211  0.0419 -0.1184 -0.3517
    1DPPC   C1B17841  23.652  13.103   3.190  0.1279 -0.0650  0.3735
    1DPPC   C2B17842  23.738  13.033   3.634  0.1078 -0.0364 -0.2183
    1DPPC   C3B17843  23.736  13.355   4.014 -0.1405  0.0750 -0.0439
    1DPPC   C4B17844  23.564  13.474   4.357  0.1688 -0.2014 -0.0860
    1DPPC   NC317845   9.370   8.669   3.677 -0.2935 -0.2287 -0.1708
    1DPPC   PO417846   9.398   9.133   3.832 -0.0255  0.1080 -0.1794
    1DPPC   GL117847   9.212   9.341   4.213 -0.0495  0.0690 -0.2527
    1DPPC   GL217848   8.911   9.361   4.342 -0.2092  0.1328 -0.1031
    1DPPC   C1A17849   9.327   9.504   4.580 -0.3052  0.3052 -0.1215
    1DPPC   C2A17850   9.358   9.574   4.991  0.0549 -0.2539  0.0258
    1DPPC   C3A17851   9.298   9.701   5.320 -0.2672  0.1224  0.0949
    1DPPC   C4A17852   9.508   9.879   5.612 -0.1743 -0.2179  0.0518
    1DPPC   C1B17853   8.831   9.306   4.698  0.0720  0.1437  0.2783
    1DPPC   C2B17854   8.922   9.382   5.136  0.2575 -0.1608 -0.0232
    1DPPC   C3B17855   9.041   9.361   5.568  0.1798 -0.0936  0.0459
    1DPPC   C4B17856   8.912   9.283   5.943  0.1033  0.0380  0.0714
    1DPPC   NC317857  10.988  10.377   3.385  0.0070 -0.1094  0.0417
    1DPPC   PO417858  10.724  10.384   3.702  0.0159 -0.0351  0.0532
    1DPPC   GL117859  10.652  10.546   3.953  0.0101 -0.1887 -0.2020
    1DPPC   GL217860  10.854  10.861   3.926 -0.1273 -0.2573  0.0336
    1DPPC   C1A17861  10.744  10.632   4.398  0.1065 -0.1527  0.2251
    1DPPC   C2A17862  10.835  10.767   4.815  0.1986  0.1374 -0.2582
    1DPPC   C3A17863  10.949  10.994   5.183 -0.0509  0.2470 -0.0797
    1DPPC   C4A17864  11.214  10.940   5.489 -0.0115 -0.0414  0.1692
    1DPPC   C1B17865  10.958  11.128   4.400 -0.3945  0.0862 -0.1907
    1DPPC   C2B17866  11.072  11.337   4.794  0.1950 -0.2914 -0.0386
    1DPPC   C3B17867  10.950  11.492   5.199 -0.2827  0.0292  0.1444
    1DPPC   C4B17868  10.946  11.667   5.638  0.0182  0.2008  0.1343
    1DPPC   NC317869  11.737   8.857   3.224  0.3993  0.1808  0.2203
    1DPPC   PO417870  11.435   9.185   3.300 -0.1779  0.2641  0.0403
    1DPPC   GL117871  11.312   9.398   3.696  0.2878  0.1756 -0.1808
    1DPPC   GL217872  11.127   9.058   3.840 -0.3878  0.3634  0.0696
    1DPPC   C1A17873  11.181   9.619   4.025 -0.2029 -0.0928  0.1057
    1DPPC   C2A17874  11.280   9.618   4.316  0.0210 -0.3196  0.0613
    1DPPC   C3A17875  11.401   9.547   4.780  0.1336 -0.0175 -0.0979
    1DPPC   C4A17876  11.719   9.488   5.135  0.1216  0.4414  0.1190
    1DPPC   C1B17877  11.378   9.168   4.155 -0.0010 -0.1747  0.0433
    1DPPC   C2B17878  11.466   9.081   4.611  0.0220  0.1393  0.0035
    1DPPC   C3B17879  11.502   8.903   5.003  0.0719 -0.3248 -0.3412
    1DPPC   C4B17880  11.372   8.678   5.374 -0.1934  0.0001  0.0312
    1DPPC   NC317881  15.154  13.940   2.551  0.0246  0.0404  0.2367
    1DPPC   PO417882  15.271  14.258   2.345  0.0292  0.1343  0.2260
    1DPPC   GL117883  15.245  14.307   2.830 -0.0334 -0.1849 -0.4050
    1DPPC   GL217884  14.936  14.092   2.953  0.1535 -0.1008 -0.0954
    1DPPC   C1A17885  15.336  14.071   3.288  0.0382 -0.1848 -0.2897
    1DPPC   C2A17886  15.416  14.092   3.739 -0.3519  0.0799  0.1420
    1DPPC   C3A17887  15.646  14.016   4.080 -0.0951 -0.0775  0.1721
    1DPPC   C4A17888  15.722  14.389   4.314  0.1016  0.2508 -0.0464
    1DPPC   C1B17889  14.961  14.390   3.239 -0.0073 -0.0715  0.1457
    1DPPC   C2B17890  15.068  14.389   3.644 -0.0949 -0.0193 -0.0121
    1DPPC   C3B17891  15.222  14.420   4.057 -0.0248 -0.1391  0.0395
    1DPPC   C4B17892  15.296  14.575   4.461 -0.1695  0.2009 -0.0549
    1DPPC   NC317893  22.664  13.190   2.319  0.0965 -0.3596  0.0922
    1DPPC   PO417894  22.226  13.271   2.414 -0.1576  0.1359 -0.0486
    1DPPC   GL117895  21.814  13.316   2.543 -0.1672 -0.1188  0.0296
    1DPPC   GL217896  21.622  13.581   2.635 -0.0232  0.2301 -0.0627
    1DPPC   C1A17897  21.768  13.128   2.902  0.0968  0.2920  0.0377
    1DPPC   C2A17898  21.554  13.221   3.376  0.3126 -0.1152 -0.3824
    1DPPC   C3A17899  21.358  13.216   3.789  0.1441 -0.2303 -0.0132
    1DPPC   C4A17900  21.192  13.648   3.853  0.0084 -0.1763  0.0175
    1DPPC   C1B17901  21.632  13.594   3.084 -0.0628  0.0092 -0.0224
    1DPPC   C2B17902  21.633  13.745   3.511  0.0175 -0.1820 -0.0696
    1DPPC   C3B17903  21.435  14.060   3.736  0.0311 -0.1769 -0.1181
    1DPPC   C4B17904  21.306  14.340   4.090 -0.1248 -0.1528  0.0305
    1DPPC   NC317905  19.032  13.667   2.142  0.1553  0.1089 -0.0290
    1DPPC   PO417906  18.621  13.511   2.297 -0.1049  0.0708  0.2323
    1DPPC   GL117907  18.656  13.741   2.673  0.0665  0.0555 -0.2654
    1DPPC   GL217908  18.852  13.579   2.802 -0.1154  0.3043  0.1622
    1DPPC   C1A17909  18.761  14.064   2.844  0.0161 -0.0703  0.1622
    1DPPC   C2A17910  18.777  14.152   3.298 -0.2585  0.2000  0.3666
    1DPPC   C3A17911  18.863  14.155   3.751  0.1759 -0.2369 -0.0026
    1DPPC   C4A17912  18.886  14.125   4.205 -0.2466 -0.1004 -0.0093
    1DPPC   C1B17913  18.735  13.647   3.198  0.4858  0.1251  0.1337
    1DPPC   C2B17914  18.729  13.664   3.600  0.0697 -0.0239 -0.2784
    1DPPC   C3B17915  18.804  13.486   3.974  0.2798  0.2435 -0.2800
    1DPPC   C4B17916  19.043  13.465   4.399 -0.1264 -0.0268 -0.5152
    1DPPC   NC317917  16.175  27.971   2.641 -0.2578  0.0800  0.1577
    1DPPC   PO417918  16.422  27.646   2.841  0.0531 -0.5420 -0.1632
    1DPPC   GL117919  16.563  27.456   3.283 -0.0606 -0.1958 -0.0602
    1DPPC   GL217920  16.816  27.465   3.398 -0.1936 -0.1633 -0.3817
    1DPPC   C1A17921  16.466  27.468   3.797  0.1270  0.3156  0.4899
    1DPPC   C2A17922  16.606  27.621   4.153 -0.2803 -0.2019 -0.2831
    1DPPC   C3A17923  16.389  27.764   4.459  0.1078  0.3248 -0.3111
    1DPPC   C4A17924  15.980  27.557   4.607  0.1704 -0.0460 -0.0201
    1DPPC   C1B17925  16.987  27.297   3.822 -0.1454 -0.0533  0.0664
    1DPPC   C2B17926  16.824  27.086   4.165  0.2210 -0.1713  0.4025
    1DPPC   C3B17927  16.644  26.869   4.544  0.2583  0.0570 -0.1183
    1DPPC   C4B17928  16.701  26.559   4.786  0.1653 -0.0619 -0.1335
    1DPPC   NC317929  18.048  11.722   2.120 -0.0779  0.0540 -0.1758
    1DPPC   PO417930  18.320  12.136   2.077 -0.1887 -0.0502 -0.0356
    1DPPC   GL117931  18.101  12.244   2.470 -0.1578 -0.0196  0.1171
    1DPPC   GL217932  17.919  12.501   2.413 -0.2047  0.2525 -0.1740
    1DPPC   C1A17933  18.149  12.217   2.971 -0.0283  0.0797 -0.2492
    1DPPC   C2A17934  18.133  12.229   3.438 -0.0507  0.0257 -0.0078
    1DPPC   C3A17935  18.222  12.177   3.783 -0.1038 -0.0008 -0.0458
    1DPPC   C4A17936  18.320  12.236   4.182  0.0546  0.1439 -0.1786
    1DPPC   C1B17937  17.801  12.650   2.843 -0.0250  0.1038 -0.1297
    1DPPC   C2B17938  17.779  12.583   3.334 -0.1095  0.0035  0.1584
    1DPPC   C3B17939  17.758  12.461   3.805  0.0112 -0.1475  0.1282
    1DPPC   C4B17940  17.905  12.531   4.191  0.0327 -0.2115 -0.3416
    1DPPC   NC317941   6.060  20.318   1.986 -0.1913  0.1337  0.2627
    1DPPC   PO417942   6.442  20.074   2.164  0.2475 -0.0656  0.1074
    1DPPC   GL117943   6.150  20.303   2.526  0.0438  0.1293  0.2156
    1DPPC   GL217944   5.987  20.503   2.439 -0.1579  0.2654  0.2611
    1DPPC   C1A17945   5.785  20.221   2.876 -0.2336 -0.1368  0.1793
    1DPPC   C2A17946   5.621  20.397   3.216 -0.3206  0.0841 -0.2044
    1DPPC   C3A17947   5.875  20.517   3.563 -0.1567  0.1258  0.0012
    1DPPC   C4A17948   6.148  20.312   3.634 -0.2939  0.1465 -0.0071
    1DPPC   C1B17949   5.590  20.615   2.524 -0.0251  0.2764  0.0395
    1DPPC   C2B17950   5.419  20.736   2.910 -0.1350 -0.1190 -0.0059
    1DPPC   C3B17951   5.354  20.794   3.316 -0.0820 -0.3509 -0.1357
    1DPPC   C4B17952   5.358  20.983   3.657  0.4239 -0.4494  0.0868
    1DPPC   NC317953  14.362  23.067   2.485  0.2060  0.1025 -0.3036
    1DPPC   PO417954  14.147  22.640   2.469 -0.5354  0.0316 -0.2077
    1DPPC   GL117955  14.301  22.483   2.884  0.2605  0.1680 -0.0669
    1DPPC   GL217956  14.348  22.178   2.887 -0.0070 -0.0309 -0.4593
    1DPPC   C1A17957  14.436  22.460   3.291 -0.1717 -0.0054  0.1263
    1DPPC   C2A17958  14.429  22.272   3.681  0.0276  0.2975 -0.4240
    1DPPC   C3A17959  14.809  22.150   3.891 -0.3602 -0.0954  0.2238
    1DPPC   C4A17960  15.308  22.306   3.870 -0.2289 -0.1404 -0.0603
    1DPPC   C1B17961  14.410  21.909   3.222  0.0485  0.0380 -0.3229
    1DPPC   C2B17962  14.552  21.800   3.585 -0.2329  0.1609  0.1644
    1DPPC   C3B17963  14.374  21.899   4.066  0.0963 -0.0556 -0.1299
    1DPPC   C4B17964  14.489  21.785   4.393  0.2301 -0.0158  0.0068
    1DPPC   NC317965  20.458  18.657   2.413  0.1148  0.3858  0.0064
    1DPPC   PO417966  20.587  18.162   2.345  0.0541 -0.0724  0.2220
    1DPPC   GL117967  20.750  18.331   2.724 -0.1172 -0.2052 -0.1406
    1DPPC   GL217968  20.880  18.499   2.843  0.0219  0.0728  0.0449
    1DPPC   C1A17969  20.509  18.230   3.122  0.3154 -0.2502 -0.2891
    1DPPC   C2A17970  20.532  18.381   3.534 -0.2904 -0.1591  0.2664
    1DPPC   C3A17971  20.676  18.482   3.995  0.4101  0.0757  0.0668
    1DPPC   C4A17972  20.680  18.207   4.327 -0.0571  0.1311 -0.0638
    1DPPC   C1B17973  21.069  18.535   3.291 -0.1483  0.1246  0.0407
    1DPPC   C2B17974  21.186  18.705   3.711 -0.2557  0.0886  0.0728
    1DPPC   C3B17975  21.485  18.827   4.048 -0.0420 -0.1459  0.1280
    1DPPC   C4B17976  21.694  18.670   4.379  0.1002  0.1373  0.2594
    1DPPC   NC317977  14.529  15.067   1.911  0.1003 -0.0297  0.4698
    1DPPC   PO417978  14.684  15.027   2.386  0.0492 -0.1174 -0.1937
    1DPPC   GL117979  14.669  15.066   2.754 -0.0909 -0.2007  0.1960
    1DPPC   GL217980  14.840  15.378   2.829  0.0467 -0.3098  0.1046
    1DPPC   C1A17981  14.570  15.145   3.258 -0.1633 -0.0675  0.2822
    1DPPC   C2A17982  14.637  15.305   3.651 -0.1511  0.1039 -0.0454
    1DPPC   C3A17983  14.539  15.236   4.115  0.3211 -0.0511  0.0299
    1DPPC   C4A17984  14.202  15.242   4.427  0.1098 -0.1770 -0.2846
    1DPPC   C1B17985  15.014  15.401   3.266  0.3396  0.0917  0.0021
    1DPPC   C2B17986  15.040  15.572   3.675 -0.2741 -0.1438 -0.0940
    1DPPC   C3B17987  14.931  15.573   4.096 -0.0749  0.0429 -0.1161
    1DPPC   C4B17988  15.077  15.620   4.461  0.0669  0.1854 -0.2809
    1DPPC   NC317989  13.401  17.013   2.435  0.2268  0.0046  0.0918
    1DPPC   PO417990  13.393  16.600   2.521 -0.0485 -0.0574 -0.1899
    1DPPC   GL117991  13.387  16.733   2.958 -0.0880  0.2005  0.3878
    1DPPC   GL217992  13.073  16.933   3.068  0.1949  0.3942  0.0667
    1DPPC   C1A17993  13.681  16.811   3.250 -0.3006  0.0402 -0.2147
    1DPPC   C2A17994  13.744  16.658   3.685 -0.0914  0.3376  0.1343
    1DPPC   C3A17995  13.718  16.637   4.218 -0.0612  0.3262  0.1978
    1DPPC   C4A17996  13.633  16.562   4.603  0.0421 -0.1699  0.1382
    1DPPC   C1B17997  12.885  16.907   3.413  0.1322 -0.0657 -0.1827
    1DPPC   C2B17998  12.903  16.914   3.811 -0.2959  0.1170  0.0955
    1DPPC   C3B17999  12.642  16.696   4.025  0.1481  0.2933 -0.2732
    1DPPC   C4B18000  12.740  16.741   4.442  0.2772  0.1039 -0.0161
    1DPPC   NC318001   0.148  10.174   2.346 -0.0241  0.0718  0.0036
    1DPPC   PO418002   0.458  10.516   2.436  0.0119 -0.2542  0.0962
    1DPPC   GL118003   0.344  10.307   2.885 -0.0017 -0.1267  0.0120
    1DPPC   GL218004   0.068  10.125   2.809 -0.1656  0.0607  0.0562
    1DPPC   C1A18005   0.341  10.357   3.405 -0.1050  0.0423 -0.0912
    1DPPC   C2A18006   0.193  10.333   3.795 -0.1378 -0.0599  0.2060
    1DPPC   C3A18007   0.085  10.306   4.149  0.0324  0.2609  0.1225
    1DPPC   C4A18008  -0.178  10.423   4.362 -0.0553 -0.3029  0.4468
    1DPPC   C1B18009   0.152   9.922   3.199 -0.1462  0.0166 -0.0578
    1DPPC   C2B18010   0.039   9.904   3.613  0.1489 -0.0496  0.1104
    1DPPC   C3B18011  -0.199   9.830   4.064 -0.1601 -0.1075  0.0346
    1DPPC   C4B18012  -0.457   9.940   4.326  0.0790 -0.0645  0.4105
    1DPPC   NC318013  16.455   6.469   3.066 -0.0411 -0.1377  0.1417
    1DPPC   PO418014  16.028   6.412   3.290 -0.1268 -0.2046  0.3286
    1DPPC   GL118015  15.956   6.647   3.811  0.1073  0.3915  0.2068
    1DPPC   GL218016  15.935   6.360   3.904  0.0565 -0.2277  0.3518
    1DPPC   C1A18017  16.174   6.750   4.178 -0.4569  0.2942  0.2062
    1DPPC   C2A18018  16.447   6.898   4.421  0.0381 -0.1987  0.2621
    1DPPC   C3A18019  16.616   6.814   4.760 -0.1083 -0.0326  0.0743
    1DPPC   C4A18020  16.737   7.035   5.095 -0.0001 -0.0504  0.3106
    1DPPC   C1B18021  15.991   6.257   4.281  0.2312 -0.1389 -0.2114
    1DPPC   C2B18022  16.229   6.447   4.613 -0.0914 -0.2640 -0.1219
    1DPPC   C3B18023  16.591   6.398   5.000 -0.0452  0.0226  0.2478
    1DPPC   C4B18024  16.933   6.597   5.046  0.0392  0.1379 -0.3222
    1DPPC   NC318025  13.698  14.838   2.228  0.0052 -0.1701  0.1095
    1DPPC   PO418026  13.441  14.636   2.517  0.4706 -0.3407  0.1621
    1DPPC   GL118027  13.440  14.344   2.811 -0.2499  0.1290  0.1598
    1DPPC   GL218028  13.510  14.056   2.797  0.2029 -0.0033  0.2999
    1DPPC   C1A18029  13.487  14.405   3.168  0.3910  0.1122  0.1474
    1DPPC   C2A18030  13.409  14.359   3.493 -0.2915 -0.0027 -0.2344
    1DPPC   C3A18031  13.470  14.479   3.874  0.1931 -0.3460 -0.0262
    1DPPC   C4A18032  13.437  14.598   4.302 -0.2460  0.0145 -0.2536
    1DPPC   C1B18033  13.341  13.900   3.202 -0.0160  0.0230  0.3221
    1DPPC   C2B18034  13.327  13.896   3.625  0.1684 -0.1769 -0.2009
    1DPPC   C3B18035  13.395  13.987   4.100 -0.1730 -0.2526  0.1918
    1DPPC   C4B18036  13.462  14.062   4.546  0.0849 -0.4016 -0.1832
    1DPPC   NC318037  17.431  15.559   2.178 -0.0663  0.1129 -0.0896
    1DPPC   PO418038  17.058  15.818   1.993 -0.1440  0.2156  0.0332
    1DPPC   GL118039  16.998  15.813   2.377 -0.4053  0.1659  0.1623
    1DPPC   GL218040  17.194  16.099   2.438 -0.2288 -0.0866  0.0079
    1DPPC   C1A18041  16.903  15.611   2.812  0.0045 -0.1906  0.0384
    1DPPC   C2A18042  16.912  15.641   3.264 -0.0938 -0.1559 -0.1094
    1DPPC   C3A18043  16.911  15.715   3.666 -0.2555  0.1182 -0.1412
    1DPPC   C4A18044  16.976  15.675   4.141  0.3510 -0.0956 -0.2493
    1DPPC   C1B18045  16.894  16.127   2.765 -0.2955 -0.0101 -0.0317
    1DPPC   C2B18046  16.832  16.162   3.173 -0.0457  0.0969  0.2912
    1DPPC   C3B18047  16.812  16.173   3.635 -0.1413 -0.2963 -0.3379
    1DPPC   C4B18048  16.820  16.181   4.127  0.1682 -0.2434 -0.0034
    1DPPC   NC318049  11.742  14.056   2.814  0.1666 -0.4773 -0.0046
    1DPPC   PO418050  11.471  13.741   2.804  0.2356 -0.2338 -0.3612
    1DPPC   GL118051  11.489  13.988   3.245 -0.1276  0.0292  0.1120
    1DPPC   GL218052  11.321  14.238   3.190  0.3943  0.0144 -0.0320
    1DPPC   C1A18053  11.544  14.249   3.640  0.2506 -0.1117 -0.1955
    1DPPC   C2A18054  11.504  14.372   4.090  0.0719  0.0405 -0.4216
    1DPPC   C3A18055  11.617  14.559   4.564 -0.0626  0.0950  0.0795
    1DPPC   C4A18056  11.368  14.524   4.956  0.0315  0.1267  0.0686
    1DPPC   C1B18057  11.313  14.683   3.312 -0.1971  0.3006 -0.0755
    1DPPC   C2B18058  11.411  14.690   3.715  0.0847  0.1707 -0.3458
    1DPPC   C3B18059  11.404  14.831   4.106  0.0648  0.1751 -0.3481
    1DPPC   C4B18060  11.324  14.940   4.528 -0.1880  0.0473 -0.1890
    1DPPC   NC318061  14.035  20.885   2.650 -0.4537 -0.2788  0.6527
    1DPPC   PO418062  14.286  21.150   2.793  0.1943 -0.0026  0.4968
    1DPPC   GL118063  14.393  20.866   3.054  0.2042  0.0840 -0.0080
    1DPPC   GL218064  14.673  20.596   3.015 -0.0266 -0.2647 -0.1572
    1DPPC   C1A18065  14.475  20.867   3.449 -0.0058  0.1640  0.1842
    1DPPC   C2A18066  14.413  20.815   3.859  0.1145 -0.0409 -0.0725
    1DPPC   C3A18067  14.110  20.799   4.197  0.1866  0.1133 -0.1226
    1DPPC   C4A18068  13.962  20.779   4.493 -0.0578 -0.3849  0.1548
    1DPPC   C1B18069  14.617  20.378   3.377 -0.1100 -0.2249 -0.0799
    1DPPC   C2B18070  14.657  20.349   3.789  0.0506  0.2118  0.2170
    1DPPC   C3B18071  14.580  20.375   4.166  0.3979 -0.1920 -0.0628
    1DPPC   C4B18072  14.784  20.152   4.518 -0.3697 -0.0923 -0.0115
    1DPPC   NC318073  14.069  20.010   2.500  0.0396  0.2996  0.0767
    1DPPC   PO418074  14.345  19.649   2.584  0.1019  0.1373  0.0969
    1DPPC   GL118075  14.092  19.659   2.923  0.2543  0.2348 -0.1105
    1DPPC   GL218076  13.901  19.854   2.963  0.3026 -0.1531  0.5342
    1DPPC   C1A18077  14.262  19.487   3.374 -0.0971 -0.2248  0.0013
    1DPPC   C2A18078  14.252  19.458   3.779 -0.0228 -0.3392 -0.2170
    1DPPC   C3A18079  14.180  19.324   4.216  0.0959 -0.2931 -0.0271
    1DPPC   C4A18080  13.966  19.467   4.578 -0.2201 -0.1805  0.2585
    1DPPC   C1B18081  13.896  19.880   3.348 -0.0282 -0.3944  0.0483
    1DPPC   C2B18082  13.964  19.949   3.746  0.3350 -0.2176 -0.2246
    1DPPC   C3B18083  13.808  19.763   4.058 -0.0333 -0.1831  0.1047
    1DPPC   C4B18084  13.590  19.833   4.466 -0.2189  0.3644 -0.4458
    1DPPC   NC318085  15.722  20.737   2.211 -0.4845 -0.1650  0.0062
    1DPPC   PO418086  15.704  21.174   2.458  0.2254  0.0277  0.1316
    1DPPC   GL118087  15.673  21.205   2.962 -0.1224 -0.0464 -0.0251
    1DPPC   GL218088  15.861  20.887   3.189  0.3657  0.0020  0.2715
    1DPPC   C1A18089  15.462  21.218   3.392  0.1470 -0.0272  0.2608
    1DPPC   C2A18090  15.519  21.276   3.832 -0.1055  0.2986  0.2594
    1DPPC   C3A18091  15.354  21.339   4.191 -0.1396  0.0568 -0.0961
    1DPPC   C4A18092  15.124  21.219   4.441 -0.1059  0.0436  0.1848
    1DPPC   C1B18093  15.930  21.028   3.561 -0.1701  0.2973  0.4162
    1DPPC   C2B18094  15.936  20.920   3.963  0.1892  0.0926  0.1147
    1DPPC   C3B18095  16.228  21.054   4.248 -0.2244  0.1029  0.0987
    1DPPC   C4B18096  16.415  21.114   4.628  0.1046 -0.0162 -0.0562
    1DPPC   NC318097  18.963  13.927   1.488  0.1194 -0.0885  0.0997
    1DPPC   PO418098  18.981  14.159   1.888 -0.1475 -0.1566 -0.0228
    1DPPC   GL118099  19.288  14.154   2.270  0.0641  0.4718  0.1724
    1DPPC   GL218100  19.580  14.400   2.352 -0.0663 -0.0053 -0.2578
    1DPPC   C1A18101  19.201  14.201   2.657 -0.1382 -0.1380  0.0294
    1DPPC   C2A18102  19.178  14.329   3.062  0.0413 -0.2879 -0.1525
    1DPPC   C3A18103  19.236  14.334   3.419 -0.3280  0.0053  0.1090
    1DPPC   C4A18104  19.314  14.503   3.769  0.2174 -0.1072 -0.2827
    1DPPC   C1B18105  19.376  14.652   2.710  0.1537 -0.1291 -0.0058
    1DPPC   C2B18106  19.616  14.644   3.079  0.0749  0.1879 -0.0585
    1DPPC   C3B18107  19.815  14.589   3.450  0.2259  0.0866 -0.0749
    1DPPC   C4B18108  19.910  14.514   3.870  0.2220  0.1147 -0.0835
    1DPPC   NC318109  10.875  12.981   2.918 -0.3704  0.0700  0.2167
    1DPPC   PO418110  11.196  12.964   2.904 -0.1386  0.0321  0.3156
    1DPPC   GL118111  11.260  12.970   3.372  0.0393 -0.2187  0.0620
    1DPPC   GL218112  11.038  13.187   3.336  0.0250 -0.0999 -0.2252
    1DPPC   C1A18113  11.420  12.987   3.786 -0.1063  0.0545  0.0253
    1DPPC   C2A18114  11.470  13.121   4.194  0.2130 -0.0520  0.0009
    1DPPC   C3A18115  11.360  13.111   4.619 -0.2801 -0.3574 -0.1406
    1DPPC   C4A18116  11.312  13.137   5.032 -0.0236 -0.2753 -0.3676
    1DPPC   C1B18117  11.115  13.379   3.693 -0.0017  0.1263 -0.0307
    1DPPC   C2B18118  11.190  13.478   4.134  0.2202 -0.3634  0.0390
    1DPPC   C3B18119  11.288  13.578   4.571 -0.1654  0.0168  0.2087
    1DPPC   C4B18120  11.485  13.664   4.956  0.0314 -0.1925  0.1100
    1DPPC   NC318121  13.286  13.169   2.674 -0.0855 -0.0859  0.1238
    1DPPC   PO418122  13.538  13.499   2.617 -0.2667 -0.1093 -0.0674
    1DPPC   GL118123  13.547  13.421   2.993  0.3794 -0.1687 -0.0168
    1DPPC   GL218124  13.774  13.670   3.057  0.0317  0.0787  0.3101
    1DPPC   C1A18125  13.459  13.480   3.405 -0.2145  0.1116 -0.0641
    1DPPC   C2A18126  13.362  13.520   3.899  0.3581 -0.1801  0.1939
    1DPPC   C3A18127  13.292  13.565   4.346  0.2269  0.1022 -0.1273
    1DPPC   C4A18128  13.490  13.564   4.767 -0.3145 -0.2244  0.3383
    1DPPC   C1B18129  13.767  13.971   3.430  0.1409  0.0553 -0.0888
    1DPPC   C2B18130  13.771  14.053   3.821 -0.1856  0.1075  0.2556
    1DPPC   C3B18131  13.812  14.193   4.238 -0.1540 -0.2966 -0.0653
    1DPPC   C4B18132  14.090  14.380   4.532  0.0271  0.1877 -0.0345
    1DPPC   NC318133   9.729  11.437   2.754  0.0493  0.0176  0.3081
    1DPPC   PO418134  10.031  11.772   2.870 -0.0714 -0.0241 -0.3756
    1DPPC   GL118135  10.083  11.668   3.344 -0.0456  0.0073 -0.0809
    1DPPC   GL218136  10.114  11.925   3.501 -0.0542  0.1848  0.1282
    1DPPC   C1A18137  10.119  11.439   3.755  0.2416  0.2975  0.1025
    1DPPC   C2A18138  10.144  11.522   4.196  0.2517 -0.0913  0.2670
    1DPPC   C3A18139  10.260  11.595   4.578  0.0278 -0.2865  0.2708
    1DPPC   C4A18140  10.207  11.711   4.970  0.0346 -0.0122  0.2827
    1DPPC   C1B18141  10.085  12.297   3.710 -0.0110  0.1105  0.2167
    1DPPC   C2B18142  10.098  12.398   4.129 -0.0518  0.2821  0.0413
    1DPPC   C3B18143  10.162  12.530   4.461  0.0819 -0.2617  0.0942
    1DPPC   C4B18144  10.169  12.586   4.858  0.0756  0.1175  0.1623
    1DPPC   NC318145  16.078  16.189   2.098 -0.2357  0.2059  0.4144
    1DPPC   PO418146  16.142  16.623   2.206  0.0474  0.0026  0.0673
    1DPPC   GL118147  16.191  16.690   2.642  0.2188 -0.1628  0.2932
    1DPPC   GL218148  16.165  17.011   2.768 -0.2521 -0.0221 -0.0749
    1DPPC   C1A18149  15.906  16.560   2.997 -0.0325 -0.0164  0.0717
    1DPPC   C2A18150  15.887  16.484   3.358  0.0164 -0.0558 -0.4140
    1DPPC   C3A18151  15.909  16.590   3.757 -0.0249 -0.0209  0.1763
    1DPPC   C4A18152  15.810  16.645   4.204  0.3520 -0.0224  0.0198
    1DPPC   C1B18153  16.331  16.857   3.171 -0.0884  0.3529  0.0228
    1DPPC   C2B18154  16.336  16.827   3.528 -0.1834  0.2234  0.0042
    1DPPC   C3B18155  16.367  16.976   3.935  0.0950  0.0992  0.2802
    1DPPC   C4B18156  16.387  16.854   4.489  0.1389 -0.2305  0.2288
    1DPPC   NC318157  15.067  13.291   2.792  0.0824  0.2979  0.2243
    1DPPC   PO418158  14.855  12.893   2.661 -0.0223 -0.0515  0.1518
    1DPPC   GL118159  14.976  12.807   3.071 -0.1444 -0.1238  0.0286
    1DPPC   GL218160  14.945  13.154   3.295  0.0552  0.2015 -0.0220
    1DPPC   C1A18161  15.091  12.738   3.524 -0.3226 -0.1203 -0.1502
    1DPPC   C2A18162  15.069  12.935   3.948  0.1793  0.0670 -0.2468
    1DPPC   C3A18163  15.055  12.970   4.441  0.1457  0.0184  0.2073
    1DPPC   C4A18164  15.000  13.032   4.857 -0.0670 -0.0584 -0.0264
    1DPPC   C1B18165  14.954  13.333   3.704  0.2769 -0.0226  0.2420
    1DPPC   C2B18166  14.893  13.378   4.204 -0.0454 -0.1522 -0.0082
    1DPPC   C3B18167  14.874  13.546   4.619 -0.1376  0.0335  0.0098
    1DPPC   C4B18168  15.299  13.411   4.555  0.0408 -0.1560 -0.1451
    1DPPC   NC318169  19.041  18.849   1.918 -0.3253 -0.0019 -0.3087
    1DPPC   PO418170  18.874  19.044   2.288 -0.1723  0.0554  0.1384
    1DPPC   GL118171  18.903  18.848   2.639 -0.0196  0.0280 -0.1315
    1DPPC   GL218172  19.126  18.580   2.573 -0.0341 -0.1370 -0.0989
    1DPPC   C1A18173  18.774  18.853   3.017  0.3218  0.1917  0.2800
    1DPPC   C2A18174  18.762  18.804   3.496 -0.2994  0.1196  0.1426
    1DPPC   C3A18175  18.802  18.847   3.959 -0.0372 -0.2838  0.1463
    1DPPC   C4A18176  18.652  18.941   4.294 -0.0562  0.0859 -0.0337
    1DPPC   C1B18177  19.215  18.569   2.897  0.0571  0.1447  0.1523
    1DPPC   C2B18178  19.160  18.612   3.292  0.0698 -0.0143 -0.0380
    1DPPC   C3B18179  19.203  18.571   3.722 -0.1506  0.1285  0.4106
    1DPPC   C4B18180  19.138  18.470   4.107  0.0171 -0.1311  0.0830
    1DPPC   NC318181  10.019  18.927   2.210 -0.0873 -0.1082 -0.0716
    1DPPC   PO418182  10.058  18.625   2.113  0.0891  0.0057  0.2068
    1DPPC   GL118183  10.151  18.551   2.505  0.1332 -0.1644  0.4053
    1DPPC   GL218184   9.848  18.599   2.577  0.1256  0.0165  0.1099
    1DPPC   C1A18185  10.411  18.368   2.712 -0.2128 -0.3658 -0.1162
    1DPPC   C2A18186  10.415  18.302   3.126 -0.1260  0.0316 -0.1273
    1DPPC   C3A18187  10.340  18.231   3.559 -0.2703  0.0828  0.1698
    1DPPC   C4A18188  10.178  18.197   3.931  0.4810 -0.3170  0.0828
    1DPPC   C1B18189   9.965  18.462   3.005  0.2600  0.1783 -0.1252
    1DPPC   C2B18190  10.012  18.653   3.394 -0.0892  0.2608 -0.0498
    1DPPC   C3B18191   9.864  18.605   3.763 -0.1568  0.1803  0.0505
    1DPPC   C4B18192   9.545  18.700   4.034  0.1157  0.2424 -0.0030
    1DPPC   NC318193  11.610  19.423   2.136  0.3266  0.0888  0.0262
    1DPPC   PO418194  11.861  19.577   2.334 -0.1300 -0.0600  0.2579
    1DPPC   GL118195  11.939  19.530   2.755 -0.1356  0.0629  0.1587
    1DPPC   GL218196  11.719  19.722   2.930 -0.2659 -0.1035 -0.1182
    1DPPC   C1A18197  11.975  19.366   3.161  0.3123 -0.1011  0.0867
    1DPPC   C2A18198  11.931  19.382   3.561 -0.1790 -0.1218  0.0490
    1DPPC   C3A18199  11.926  19.192   3.935 -0.0889 -0.0004 -0.1935
    1DPPC   C4A18200  11.793  19.066   4.339 -0.3351  0.0572  0.1748
    1DPPC   C1B18201  11.666  19.740   3.303  0.2626 -0.2132  0.0541
    1DPPC   C2B18202  11.700  19.768   3.798  0.3428  0.1475 -0.1240
    1DPPC   C3B18203  11.595  19.516   4.127 -0.0497  0.2713  0.1947
    1DPPC   C4B18204  11.243  19.405   4.475  0.3222  0.1372  0.0984
    1DPPC   NC318205  11.955  17.087   2.215  0.3299  0.1957 -0.1281
    1DPPC   PO418206  11.689  16.752   2.253  0.1413 -0.0823  0.0268
    1DPPC   GL118207  11.421  16.735   2.640 -0.4962  0.0795 -0.0413
    1DPPC   GL218208  11.362  16.521   2.818 -0.2161 -0.0277 -0.1216
    1DPPC   C1A18209  11.231  17.058   2.946  0.1694  0.2554  0.1971
    1DPPC   C2A18210  11.158  17.022   3.361  0.2269  0.0745  0.0508
    1DPPC   C3A18211  11.214  17.133   3.699  0.1162  0.1542 -0.2272
    1DPPC   C4A18212  11.180  17.086   4.075 -0.0452  0.0649 -0.3981
    1DPPC   C1B18213  11.375  16.539   3.246  0.1107 -0.0258 -0.1659
    1DPPC   C2B18214  11.303  16.633   3.603 -0.2366  0.3090  0.0472
    1DPPC   C3B18215  11.253  16.554   4.037 -0.0810 -0.0429 -0.1157
    1DPPC   C4B18216  11.256  16.650   4.404 -0.0808 -0.3582 -0.1596
    1DPPC   NC318217  15.535  12.223   2.615  0.0849  0.1051  0.1824
    1DPPC   PO418218  15.561  12.555   2.641 -0.0484  0.1828  0.1247
    1DPPC   GL118219  15.461  12.423   3.036 -0.0331  0.0519  0.1368
    1DPPC   GL218220  15.169  12.305   3.060 -0.1219 -0.2905  0.0270
    1DPPC   C1A18221  15.488  12.478   3.489  0.1519  0.3605 -0.4164
    1DPPC   C2A18222  15.409  12.519   3.893  0.1186 -0.1299 -0.4320
    1DPPC   C3A18223  15.396  12.595   4.289 -0.0777  0.3113 -0.0529
    1DPPC   C4A18224  15.390  12.474   4.758  0.1821  0.1432 -0.0399
    1DPPC   C1B18225  15.159  11.993   3.371  0.4119 -0.1565 -0.2663
    1DPPC   C2B18226  15.296  12.017   3.780  0.2531  0.2882  0.1462
    1DPPC   C3B18227  15.318  12.006   4.131 -0.1287 -0.0114  0.2542
    1DPPC   C4B18228  15.496  11.952   4.541  0.0765 -0.1530  0.0649
    1DPPC   NC318229  15.480  13.792   2.223 -0.1067 -0.4570  0.2920
    1DPPC   PO418230  15.445  13.473   2.533 -0.1388  0.2264  0.0633
    1DPPC   GL118231  15.540  13.511   2.925 -0.3970 -0.0495  0.1104
    1DPPC   GL218232  15.330  13.623   3.047  0.1780 -0.0579 -0.3305
    1DPPC   C1A18233  15.775  13.679   3.410 -0.0507  0.0509 -0.1660
    1DPPC   C2A18234  15.828  13.715   3.733  0.3423  0.1709 -0.3237
    1DPPC   C3A18235  16.203  13.779   4.006  0.1116  0.1968  0.0568
    1DPPC   C4A18236  16.257  13.792   4.442  0.0188  0.1019 -0.3489
    1DPPC   C1B18237  15.299  13.606   3.462 -0.3049  0.1127  0.0245
    1DPPC   C2B18238  15.365  13.559   3.967 -0.0398  0.1782  0.0903
    1DPPC   C3B18239  15.693  13.512   4.272  0.0977 -0.2728 -0.0315
    1DPPC   C4B18240  15.771  13.400   4.679 -0.2106  0.2574  0.0343
    1DPPC   NC318241  16.868  11.622   2.267  0.0458 -0.3545 -0.1083
    1DPPC   PO418242  16.484  11.527   2.115  0.0290 -0.3415 -0.1593
    1DPPC   GL118243  16.458  11.596   2.538 -0.2446  0.2402  0.1056
    1DPPC   GL218244  16.211  11.707   2.632 -0.0283 -0.0106  0.1007
    1DPPC   C1A18245  16.602  11.564   2.982 -0.1264  0.1408  0.3023
    1DPPC   C2A18246  16.628  11.573   3.386  0.1283  0.1689 -0.0462
    1DPPC   C3A18247  16.651  11.583   3.794  0.1443  0.0414 -0.1657
    1DPPC   C4A18248  16.861  11.549   4.301 -0.0361 -0.0112 -0.0657
    1DPPC   C1B18249  16.226  11.800   3.143  0.2675 -0.0417  0.1790
    1DPPC   C2B18250  16.207  11.872   3.561  0.0599 -0.1377 -0.3528
    1DPPC   C3B18251  16.231  11.991   3.935  0.2991 -0.0467 -0.1064
    1DPPC   C4B18252  16.194  12.054   4.378 -0.0907  0.2606 -0.0986
    1DPPC   NC318253  12.529  20.770   2.708 -0.0330  0.0159 -0.1726
    1DPPC   PO418254  12.603  20.360   2.805 -0.1837 -0.1853  0.1286
    1DPPC   GL118255  12.441  20.488   3.176  0.1209 -0.3185 -0.0110
    1DPPC   GL218256  12.795  20.724   3.168 -0.3157  0.0746  0.1286
    1DPPC   C1A18257  12.583  20.645   3.615  0.1160 -0.1661 -0.2472
    1DPPC   C2A18258  12.303  20.886   3.862 -0.0803  0.3248 -0.1697
    1DPPC   C3A18259  12.022  21.011   4.277  0.1001  0.1352 -0.0874
    1DPPC   C4A18260  11.695  21.239   4.481 -0.3065  0.2951  0.2686
    1DPPC   C1B18261  13.031  20.951   3.534 -0.0512  0.0309  0.0758
    1DPPC   C2B18262  13.044  20.930   3.910  0.1645 -0.0555  0.0568
    1DPPC   C3B18263  13.061  20.961   4.331 -0.0617 -0.0195 -0.1081
    1DPPC   C4B18264  12.894  20.707   4.640  0.1158 -0.0286  0.1902
    1DPPC   NC318265  19.184  17.881   1.794 -0.1491  0.0104  0.3694
    1DPPC   PO418266  19.115  17.593   2.047  0.1858  0.1123 -0.0551
    1DPPC   GL118267  19.294  17.332   2.378  0.3134 -0.1890  0.1265
    1DPPC   GL218268  19.412  17.529   2.542 -0.2256  0.0414 -0.0070
    1DPPC   C1A18269  19.416  17.118   2.822  0.0638  0.1776  0.1366
    1DPPC   C2A18270  19.504  17.141   3.306  0.1178  0.1759  0.1971
    1DPPC   C3A18271  19.516  17.248   3.714 -0.0495  0.0381  0.2826
    1DPPC   C4A18272  19.700  17.295   4.104  0.0029 -0.1960  0.2226
    1DPPC   C1B18273  19.553  17.637   3.021  0.1733 -0.1378  0.3709
    1DPPC   C2B18274  19.576  17.681   3.477 -0.0598  0.3978 -0.0122
    1DPPC   C3B18275  19.628  17.769   3.925 -0.4130  0.4467  0.1948
    1DPPC   C4B18276  19.473  17.697   4.344  0.1411 -0.0924 -0.0113
    1DPPC   NC318277  12.395  15.215   2.642 -0.0602  0.0451  0.1150
    1DPPC   PO418278  12.828  15.359   2.451  0.0609  0.1495  0.0238
    1DPPC   GL118279  12.827  15.170   2.844 -0.0285 -0.1418 -0.0198
    1DPPC   GL218280  12.560  15.119   3.044  0.0281  0.2671  0.0468
    1DPPC   C1A18281  12.942  15.376   3.223  0.1291 -0.0151 -0.0517
    1DPPC   C2A18282  12.959  15.400   3.593  0.2413  0.0849 -0.2144
    1DPPC   C3A18283  12.781  15.234   4.001 -0.0623  0.0822  0.0925
    1DPPC   C4A18284  12.780  15.395   4.352  0.0314 -0.2425  0.0001
    1DPPC   C1B18285  12.523  15.211   3.455 -0.0423 -0.2993 -0.0887
    1DPPC   C2B18286  12.436  15.530   3.751 -0.0553  0.1127 -0.3551
    1DPPC   C3B18287  12.333  15.724   4.163 -0.0061 -0.0021 -0.1199
    1DPPC   C4B18288  12.334  15.849   4.669  0.2689 -0.2539  0.2991
    1DPPC   NC318289  18.875  12.315   1.965 -0.1036  0.1226  0.3480
    1DPPC   PO418290  18.994  12.658   2.234 -0.0469 -0.0885  0.1970
    1DPPC   GL118291  18.891  12.242   2.511  0.0595  0.1124  0.0045
    1DPPC   GL218292  18.546  12.257   2.631 -0.0412 -0.0239 -0.0567
    1DPPC   C1A18293  18.948  11.882   2.818  0.3871 -0.0213 -0.2218
    1DPPC   C2A18294  19.001  11.932   3.276 -0.1495 -0.1963 -0.2285
    1DPPC   C3A18295  19.062  11.916   3.698  0.1473 -0.0103  0.0484
    1DPPC   C4A18296  19.279  11.775   3.978  0.1746 -0.0910  0.1126
    1DPPC   C1B18297  18.656  12.289   2.994 -0.3872 -0.1652 -0.3609
    1DPPC   C2B18298  18.637  12.305   3.485 -0.0668  0.1118  0.1440
    1DPPC   C3B18299  18.731  12.300   3.889 -0.0038  0.2915  0.2118
    1DPPC   C4B18300  18.852  11.975   4.146  0.0570  0.2392  0.1495
    1DPPC   NC318301  20.531  11.790   2.095  0.1520 -0.0593  0.0767
    1DPPC   PO418302  20.363  12.149   2.010 -0.0165  0.0869 -0.0643
    1DPPC   GL118303  20.396  12.031   2.508 -0.1269  0.1714  0.3510
    1DPPC   GL218304  20.056  12.084   2.682 -0.2341  0.2593 -0.1951
    1DPPC   C1A18305  20.406  11.708   2.817 -0.2827  0.0842  0.3760
    1DPPC   C2A18306  20.496  11.669   3.267  0.2587  0.0229 -0.2028
    1DPPC   C3A18307  20.633  11.711   3.685  0.0094  0.0120  0.1477
    1DPPC   C4A18308  20.810  11.864   4.090 -0.0670 -0.2177  0.2424
    1DPPC   C1B18309  20.076  11.992   3.126 -0.0426  0.0476 -0.0797
    1DPPC   C2B18310  20.233  12.072   3.444 -0.2095 -0.0757 -0.1812
    1DPPC   C3B18311  20.262  12.150   3.869 -0.0962  0.2755  0.0093
    1DPPC   C4B18312  20.301  12.007   4.241  0.2530 -0.2229 -0.1976
    1DPPC   NC318313  11.752  19.151   2.503 -0.1424 -0.1452  0.1611
    1DPPC   PO418314  12.118  19.144   2.425  0.0030  0.1885 -0.1634
    1DPPC   GL118315  12.101  18.938   2.803  0.0029 -0.0059 -0.2428
    1DPPC   GL218316  11.801  18.794   2.865  0.3284 -0.1083  0.0363
    1DPPC   C1A18317  12.220  18.538   3.006 -0.1675  0.2200  0.3097
    1DPPC   C2A18318  12.248  18.308   3.300 -0.1392 -0.1855  0.2180
    1DPPC   C3A18319  12.127  18.256   3.663  0.1144  0.0493  0.0182
    1DPPC   C4A18320  12.110  18.377   4.189 -0.0399  0.3925 -0.2362
    1DPPC   C1B18321  11.940  18.888   3.278 -0.3307  0.2227  0.1060
    1DPPC   C2B18322  11.995  18.824   3.611 -0.3249  0.3029  0.0792
    1DPPC   C3B18323  11.751  18.715   3.985  0.0188 -0.1484 -0.1297
    1DPPC   C4B18324  11.749  18.552   4.475  0.3651 -0.0459 -0.1048
    1DPPC   NC318325  29.784  28.633   3.244  0.2276  0.2567  0.2259
    1DPPC   PO418326  29.428  28.841   3.094 -0.0273 -0.2589  0.1581
    1DPPC   GL118327  29.138  28.677   3.465 -0.1052 -0.0749  0.2198
    1DPPC   GL218328  29.097  29.002   3.562  0.1192 -0.1093  0.2645
    1DPPC   C1A18329  28.892  28.514   3.730 -0.0950 -0.0793 -0.0300
    1DPPC   C2A18330  28.861  28.551   4.151  0.0156 -0.0887 -0.3733
    1DPPC   C3A18331  28.781  28.630   4.580 -0.3407  0.1993  0.1273
    1DPPC   C4A18332  28.783  28.397   4.920 -0.0482  0.0108 -0.0510
    1DPPC   C1B18333  29.245  28.850   3.952  0.3695 -0.1844 -0.2609
    1DPPC   C2B18334  29.219  28.903   4.446  0.0614 -0.0664 -0.1970
    1DPPC   C3B18335  29.210  29.235   4.787 -0.0055 -0.2362 -0.0956
    1DPPC   C4B18336  29.341  29.696   4.685  0.0797 -0.4228 -0.1423
    1DPPC   NC318337  16.270  14.358   2.091 -0.1685  0.1760 -0.0311
    1DPPC   PO418338  16.245  14.726   2.039 -0.0904  0.2557 -0.2095
    1DPPC   GL118339  16.211  14.824   2.458 -0.1432 -0.3038  0.0087
    1DPPC   GL218340  16.010  14.949   2.578  0.1470 -0.1125  0.0231
    1DPPC   C1A18341  16.221  14.702   2.928  0.1958  0.2908 -0.2379
    1DPPC   C2A18342  16.238  14.731   3.254  0.3332 -0.4654 -0.0534
    1DPPC   C3A18343  16.198  14.908   3.741  0.0329 -0.0917  0.1624
    1DPPC   C4A18344  16.038  14.856   4.222 -0.1012 -0.0706  0.1815
    1DPPC   C1B18345  15.953  15.133   3.005 -0.1999 -0.1024 -0.0332
    1DPPC   C2B18346  15.853  15.211   3.450  0.3906 -0.0708 -0.1201
    1DPPC   C3B18347  15.808  15.232   3.876  0.0626 -0.0385 -0.0611
    1DPPC   C4B18348  15.807  15.640   4.139 -0.0519 -0.3832 -0.1256
    1DPPC   NC318349  13.454  13.889   2.294  0.4098 -0.1613 -0.0988
    1DPPC   PO418350  13.035  14.007   2.543 -0.1837 -0.3562  0.1573
    1DPPC   GL118351  12.932  14.057   2.957  0.0821 -0.0810  0.4097
    1DPPC   GL218352  12.565  14.076   2.912  0.1388 -0.0029  0.1612
    1DPPC   C1A18353  12.974  14.165   3.424  0.1562 -0.0940 -0.1758
    1DPPC   C2A18354  12.936  14.358   3.748  0.0981 -0.2568 -0.0302
    1DPPC   C3A18355  12.982  14.388   4.218  0.0601 -0.3219 -0.0572
    1DPPC   C4A18356  13.024  14.595   4.655 -0.3377 -0.0578  0.3951
    1DPPC   C1B18357  12.415  14.085   3.309 -0.0556  0.2648 -0.2428
    1DPPC   C2B18358  12.435  14.161   3.767 -0.2188  0.0353 -0.1234
    1DPPC   C3B18359  12.455  14.277   4.209  0.0339  0.0907  0.0672
    1DPPC   C4B18360  12.567  14.390   4.724 -0.0912 -0.0170 -0.0231
    1DPPC   NC318361  11.542  17.692   2.245 -0.1823 -0.1502  0.1182
    1DPPC   PO418362  11.937  17.682   2.224  0.2238 -0.0780  0.1583
    1DPPC   GL118363  11.845  17.822   2.630  0.1404  0.3197 -0.0044
    1DPPC   GL218364  11.983  18.191   2.715 -0.0417  0.2461  0.1543
    1DPPC   C1A18365  11.804  17.922   3.064  0.2152 -0.1499 -0.0221
    1DPPC   C2A18366  11.864  17.885   3.508  0.1766 -0.0813  0.0430
    1DPPC   C3A18367  12.089  17.832   3.974  0.1074 -0.2343 -0.1285
    1DPPC   C4A18368  12.326  17.817   4.348  0.2858 -0.4125  0.2203
    1DPPC   C1B18369  12.349  18.034   2.819  0.1527  0.0447  0.0555
    1DPPC   C2B18370  12.775  17.935   3.014 -0.1297 -0.0859  0.0155
    1DPPC   C3B18371  12.979  17.941   3.324  0.0737  0.0286  0.1522
    1DPPC   C4B18372  13.043  17.958   3.776 -0.2388 -0.2095  0.0081
    1DPPC   NC318373  15.491  19.016   2.411  0.0078 -0.1905  0.1532
    1DPPC   PO418374  15.143  18.848   2.576 -0.2377 -0.0214  0.0624
    1DPPC   GL118375  15.175  18.469   2.863 -0.0365  0.0470  0.1398
    1DPPC   GL218376  15.395  18.274   2.946 -0.2246 -0.3320 -0.0235
    1DPPC   C1A18377  14.975  18.369   3.298 -0.1187 -0.2194  0.1030
    1DPPC   C2A18378  15.011  18.321   3.631  0.1678  0.1261 -0.2102
    1DPPC   C3A18379  15.129  18.344   4.028 -0.0215  0.1111  0.1207
    1DPPC   C4A18380  15.008  18.533   4.339  0.0420 -0.0001  0.1038
    1DPPC   C1B18381  15.371  18.011   3.352 -0.0118 -0.5028 -0.0981
    1DPPC   C2B18382  15.368  17.899   3.776 -0.0259 -0.0557 -0.0873
    1DPPC   C3B18383  15.442  17.920   4.229 -0.1597 -0.1027  0.2257
    1DPPC   C4B18384  15.103  18.032   4.516 -0.1357 -0.0194  0.1093
    1DPPC   NC318385  15.024  11.215   1.992 -0.1392  0.1326 -0.5841
    1DPPC   PO418386  15.287  10.948   2.331 -0.0771 -0.0825 -0.1032
    1DPPC   GL118387  15.482  11.018   2.697 -0.0017  0.0267 -0.0252
    1DPPC   GL218388  15.278  11.212   2.944 -0.0720  0.0119 -0.0566
    1DPPC   C1A18389  15.701  10.861   3.122 -0.0152  0.1258  0.1260
    1DPPC   C2A18390  15.895  10.913   3.441  0.0483  0.4113  0.0620
    1DPPC   C3A18391  16.238  10.859   3.801 -0.1416 -0.1415 -0.2675
    1DPPC   C4A18392  16.444  11.100   4.008  0.3690 -0.1406  0.0826
    1DPPC   C1B18393  15.493  11.247   3.376  0.1740  0.2015  0.0141
    1DPPC   C2B18394  15.547  11.139   3.832  0.0226  0.3620 -0.2442
    1DPPC   C3B18395  15.778  11.206   4.218  0.0808  0.1664 -0.0475
    1DPPC   C4B18396  16.035  11.091   4.474  0.0417  0.0229  0.2227
    1DPPC   NC318397  13.377   8.183   3.764 -0.3654 -0.0928  0.0062
    1DPPC   PO418398  12.922   8.302   3.762 -0.1824  0.0840 -0.1295
    1DPPC   GL118399  13.215   8.646   3.992  0.1260 -0.1704  0.0425
    1DPPC   GL218400  13.360   8.453   4.232 -0.0548  0.1333  0.2509
    1DPPC   C1A18401  13.414   8.951   4.310 -0.0693 -0.2032  0.1233
    1DPPC   C2A18402  13.510   9.191   4.727 -0.2760  0.1306  0.3810
    1DPPC   C3A18403  13.471   9.194   5.200 -0.1226 -0.1360 -0.1693
    1DPPC   C4A18404  13.383   9.162   5.672 -0.0707 -0.1917 -0.2838
    1DPPC   C1B18405  13.343   8.293   4.499  0.2181  0.1188 -0.0298
    1DPPC   C2B18406  13.497   8.291   4.932  0.2095 -0.1887 -0.2760
    1DPPC   C3B18407  13.392   8.298   5.403  0.0882  0.0170 -0.1617
    1DPPC   C4B18408  13.409   8.145   5.766  0.0609 -0.3377  0.2821
    1DPPC   NC318409   9.435  13.237   2.879 -0.0453 -0.1242 -0.2145
    1DPPC   PO418410   9.067  12.991   2.924 -0.2896 -0.3198  0.0522
    1DPPC   GL118411   8.795  12.925   3.228 -0.0096  0.3153  0.0263
    1DPPC   GL218412   8.600  13.202   3.282 -0.1379  0.2174  0.0294
    1DPPC   C1A18413   8.887  13.036   3.647  0.0471  0.1642  0.1461
    1DPPC   C2A18414   8.731  12.887   4.072  0.0824 -0.1528  0.3606
    1DPPC   C3A18415   8.730  12.654   4.511  0.1635 -0.2376  0.0783
    1DPPC   C4A18416   8.789  12.610   4.928 -0.2128  0.1003 -0.1861
    1DPPC   C1B18417   8.406  13.320   3.629 -0.0352 -0.0609 -0.2649
    1DPPC   C2B18418   8.364  13.437   4.034  0.1389 -0.0372 -0.0671
    1DPPC   C3B18419   8.320  13.621   4.429 -0.0238  0.0488 -0.1623
    1DPPC   C4B18420   8.124  13.559   4.907  0.1641  0.1005 -0.2200
    1DPPC   NC318421   8.502  16.353   3.029 -0.2126 -0.1383 -0.0625
    1DPPC   PO418422   8.394  16.760   2.841  0.0740  0.0784 -0.0584
    1DPPC   GL118423   8.451  16.869   3.314  0.1922 -0.0577 -0.1373
    1DPPC   GL218424   8.339  16.601   3.421 -0.0272 -0.0444  0.0774
    1DPPC   C1A18425   8.311  17.186   3.540  0.1069 -0.1650  0.1578
    1DPPC   C2A18426   8.311  17.279   3.880 -0.2654  0.3037 -0.0163
    1DPPC   C3A18427   8.415  17.499   4.229 -0.0991 -0.2655  0.0790
    1DPPC   C4A18428   8.204  17.784   4.445 -0.1924 -0.1031  0.0418
    1DPPC   C1B18429   8.288  16.712   3.840 -0.1775  0.0942  0.3394
    1DPPC   C2B18430   8.261  16.619   4.346  0.0650  0.1071  0.0643
    1DPPC   C3B18431   8.077  16.343   4.690 -0.0817 -0.2409  0.0330
    1DPPC   C4B18432   7.923  15.922   4.810  0.0779  0.4571  0.2239
    1DPPC   NC318433  12.925  16.794   2.578  0.0146 -0.0449  0.1654
    1DPPC   PO418434  12.656  16.490   2.312  0.0351 -0.0782  0.0113
    1DPPC   GL118435  12.379  16.439   2.623  0.3169  0.1428 -0.0544
    1DPPC   GL218436  12.144  16.739   2.677  0.1266 -0.0569 -0.0883
    1DPPC   C1A18437  12.124  16.344   3.012 -0.1564  0.2563  0.0917
    1DPPC   C2A18438  11.862  16.400   3.329  0.1242  0.0546 -0.0796
    1DPPC   C3A18439  11.751  16.397   3.691 -0.2349  0.0743 -0.0473
    1DPPC   C4A18440  11.748  16.457   4.137 -0.1703 -0.1910  0.2654
    1DPPC   C1B18441  11.785  16.782   2.994  0.2562 -0.2845  0.1456
    1DPPC   C2B18442  11.664  16.962   3.348  0.1402 -0.0772 -0.2475
    1DPPC   C3B18443  11.668  16.936   3.766  0.1455 -0.0414  0.0603
    1DPPC   C4B18444  11.688  17.004   4.210 -0.2736 -0.1645 -0.2304
    1DPPC   NC318445  17.454  12.569   1.455  0.1284 -0.1420  0.1443
    1DPPC   PO418446  17.567  12.700   1.934 -0.1063  0.1541  0.1060
    1DPPC   GL118447  17.594  12.845   2.323 -0.1808  0.0547 -0.0159
    1DPPC   GL218448  17.755  13.166   2.337  0.0661 -0.1194 -0.0321
    1DPPC   C1A18449  17.387  12.908   2.702  0.0925  0.0920 -0.1462
    1DPPC   C2A18450  17.380  12.866   3.193  0.0091  0.0524  0.0480
    1DPPC   C3A18451  17.358  12.827   3.555 -0.1298  0.1195  0.1234
    1DPPC   C4A18452  17.426  12.790   4.044 -0.3103  0.0790 -0.0521
    1DPPC   C1B18453  17.857  13.160   2.776 -0.0547  0.1779  0.0487
    1DPPC   C2B18454  17.801  13.123   3.179  0.0343  0.0349  0.2800
    1DPPC   C3B18455  17.859  12.957   3.727 -0.1068 -0.0593  0.2053
    1DPPC   C4B18456  17.814  13.161   4.178 -0.1981 -0.1334  0.0864
    1DPPC   NC318457  17.722  19.498   2.062 -0.1627 -0.1916  0.2208
    1DPPC   PO418458  17.683  19.837   2.396  0.2430 -0.0215 -0.6287
    1DPPC   GL118459  17.714  19.720   2.872 -0.0048 -0.0941 -0.0272
    1DPPC   GL218460  17.854  19.365   3.002  0.1798 -0.0685  0.0225
    1DPPC   C1A18461  17.614  19.731   3.278 -0.2565  0.3048  0.2398
    1DPPC   C2A18462  17.689  19.735   3.758 -0.3045  0.0887  0.1054
    1DPPC   C3A18463  17.554  19.756   4.179  0.1564 -0.0721  0.0220
    1DPPC   C4A18464  17.684  19.885   4.462 -0.2233  0.0814  0.2546
    1DPPC   C1B18465  17.922  19.185   3.294  0.2525  0.0211  0.2290
    1DPPC   C2B18466  18.000  19.262   3.660 -0.0285  0.2060 -0.0684
    1DPPC   C3B18467  18.010  19.188   4.050 -0.0875 -0.2680  0.1282
    1DPPC   C4B18468  17.748  19.365   4.358 -0.0034 -0.1307 -0.0851
    1DPPC   NC318469  15.509   1.453   3.135  0.2004 -0.2909 -0.1320
    1DPPC   PO418470  15.515   1.019   3.237 -0.4377 -0.0997  0.2853
    1DPPC   GL118471  15.720   1.121   3.653 -0.2276  0.0478  0.1060
    1DPPC   GL218472  15.870   0.920   3.872 -0.1846 -0.1320 -0.1301
    1DPPC   C1A18473  15.420   1.266   4.009 -0.0022  0.2299 -0.0945
    1DPPC   C2A18474  15.337   1.178   4.475  0.3481 -0.0989 -0.0923
    1DPPC   C3A18475  15.409   1.331   4.828 -0.1115  0.1413  0.2951
    1DPPC   C4A18476  15.446   1.421   5.303  0.1186 -0.0886 -0.0596
    1DPPC   C1B18477  15.640   0.803   4.306 -0.2417  0.0538  0.0958
    1DPPC   C2B18478  15.520   0.792   4.735 -0.0874 -0.5231 -0.0663
    1DPPC   C3B18479  15.330   0.919   5.110  0.1791 -0.1186 -0.0059
    1DPPC   C4B18480  14.912   1.101   5.327 -0.1882  0.0563 -0.1567
    1DPPC   NC318481  11.181   9.592   3.266 -0.1558  0.1523  0.4982
    1DPPC   PO418482  10.849   9.904   3.485  0.1800  0.2822  0.2379
    1DPPC   GL118483  10.747   9.742   3.844  0.0297  0.0132 -0.2171
    1DPPC   GL218484  10.551   9.576   3.916 -0.0933 -0.0660 -0.2171
    1DPPC   C1A18485  10.795   9.700   4.315  0.0155 -0.4742  0.2893
    1DPPC   C2A18486  10.839   9.636   4.791  0.0602 -0.0411  0.1743
    1DPPC   C3A18487  11.141   9.693   5.155 -0.2128  0.0864 -0.1368
    1DPPC   C4A18488  11.183   9.963   5.410  0.2756 -0.1482  0.0699
    1DPPC   C1B18489  10.809   9.237   4.175  0.0142 -0.1384 -0.1370
    1DPPC   C2B18490  11.008   9.256   4.530 -0.0564  0.2094 -0.3669
    1DPPC   C3B18491  11.101   9.235   4.985  0.0056  0.1955  0.4506
    1DPPC   C4B18492  11.320   9.302   5.338  0.1141 -0.1189 -0.2223
    1DPPC   NC318493  11.577  13.225   2.870  0.2250 -0.0590 -0.2148
    1DPPC   PO418494  11.668  12.830   3.025  0.0751  0.0539 -0.1321
    1DPPC   GL118495  11.664  12.694   3.415  0.2603 -0.1553  0.0753
    1DPPC   GL218496  11.364  12.485   3.407  0.1399  0.0158 -0.1603
    1DPPC   C1A18497  11.755  12.613   3.828 -0.2939  0.1181 -0.1756
    1DPPC   C2A18498  11.758  12.676   4.350  0.0555  0.0628  0.2015
    1DPPC   C3A18499  11.609  12.681   4.726  0.0773  0.1072 -0.1811
    1DPPC   C4A18500  11.697  12.893   5.119  0.1047  0.0393 -0.0859
    1DPPC   C1B18501  11.228  12.537   3.778 -0.1680  0.3782  0.0796
    1DPPC   C2B18502  11.311  12.652   4.091 -0.1453  0.0764 -0.1741
    1DPPC   C3B18503  11.160  12.695   4.483  0.1557  0.0681  0.1608
    1DPPC   C4B18504  11.137  12.638   4.902 -0.1547 -0.2613  0.1267
    1DPPC   NC318505  22.619  10.793   2.760 -0.1340  0.2659  0.0253
    1DPPC   PO418506  22.430  11.067   2.693 -0.1877  0.1481 -0.0516
    1DPPC   GL118507  22.387  11.362   3.014 -0.0357 -0.2100  0.1035
    1DPPC   GL218508  22.400  11.653   3.001 -0.1609 -0.0876  0.2698
    1DPPC   C1A18509  22.461  11.530   3.472 -0.1414 -0.0794  0.0641
    1DPPC   C2A18510  22.554  11.544   3.905 -0.0576  0.0604 -0.1686
    1DPPC   C3A18511  22.660  11.326   4.263  0.1355 -0.1692  0.0637
    1DPPC   C4A18512  22.836  11.205   4.659 -0.3606  0.1272 -0.6160
    1DPPC   C1B18513  22.849  11.674   3.167 -0.2970 -0.0061 -0.2201
    1DPPC   C2B18514  22.951  11.376   3.633  0.0196 -0.1216  0.1163
    1DPPC   C3B18515  23.003  11.065   3.980  0.0215  0.4206 -0.1001
    1DPPC   C4B18516  22.896  10.644   3.951 -0.1054 -0.1495 -0.2363
    1DPPC   NC318517  25.362  16.985   1.854  0.1025 -0.0368  0.3977
    1DPPC   PO418518  24.926  16.977   1.935  0.0124 -0.0276 -0.1797
    1DPPC   GL118519  24.765  17.182   2.348 -0.4015  0.2243  0.2503
    1DPPC   GL218520  24.862  17.521   2.315 -0.0956  0.0598 -0.0367
    1DPPC   C1A18521  24.785  17.051   2.799  0.1164 -0.2449  0.0438
    1DPPC   C2A18522  24.923  17.184   3.141 -0.0848  0.2498 -0.0500
    1DPPC   C3A18523  25.013  17.185   3.474  0.4465  0.1277 -0.0437
    1DPPC   C4A18524  25.054  16.716   3.648 -0.1675 -0.1412 -0.0946
    1DPPC   C1B18525  25.083  17.495   2.770 -0.0261 -0.0731  0.1682
    1DPPC   C2B18526  25.279  17.505   3.180 -0.1466 -0.2094  0.1262
    1DPPC   C3B18527  25.219  17.623   3.698 -0.0426  0.0798 -0.0704
    1DPPC   C4B18528  25.062  17.829   4.021  0.0664  0.0256 -0.2984
    1DPPC   NC318529  11.302  12.016   2.572  0.1797  0.1790 -0.0315
    1DPPC   PO418530  11.401  11.959   3.075  0.1102  0.2088  0.0313
    1DPPC   GL118531  11.523  11.973   3.551  0.4176  0.2692  0.1224
    1DPPC   GL218532  11.385  11.605   3.670  0.2805  0.0146  0.3033
    1DPPC   C1A18533  11.548  12.110   3.859  0.0559  0.0791 -0.0025
    1DPPC   C2A18534  11.568  12.215   4.398  0.0340  0.1001 -0.0728
    1DPPC   C3A18535  11.410  12.232   4.838  0.2976 -0.2330 -0.0888
    1DPPC   C4A18536  11.484  12.390   5.244  0.1318 -0.1327 -0.0655
    1DPPC   C1B18537  11.378  11.704   4.139 -0.2272 -0.0314 -0.1074
    1DPPC   C2B18538  11.250  11.785   4.551 -0.2888 -0.1143  0.1201
    1DPPC   C3B18539  11.327  11.738   4.977 -0.1052 -0.2889 -0.0134
    1DPPC   C4B18540  11.437  11.400   5.338 -0.0163  0.0438 -0.0251
    1DPPC   NC318541  21.274  18.627   2.554 -0.1643 -0.1018 -0.2726
    1DPPC   PO418542  21.366  19.008   2.392 -0.0385  0.0044 -0.1525
    1DPPC   GL118543  21.479  18.976   2.785 -0.4174 -0.0520  0.0680
    1DPPC   GL218544  21.451  19.296   2.829  0.1378  0.0141 -0.3040
    1DPPC   C1A18545  21.769  19.119   3.242  0.0829 -0.0940  0.1851
    1DPPC   C2A18546  21.954  19.472   3.561  0.2711  0.4926 -0.2761
    1DPPC   C3A18547  22.104  19.510   3.983  0.0815 -0.1195  0.1077
    1DPPC   C4A18548  22.224  19.614   4.343  0.1360 -0.1216 -0.2204
    1DPPC   C1B18549  21.742  19.568   3.048  0.2218 -0.0585 -0.0572
    1DPPC   C2B18550  22.171  19.582   3.150 -0.1016  0.0824  0.0204
    1DPPC   C3B18551  22.467  19.688   3.478 -0.0770 -0.0634  0.1009
    1DPPC   C4B18552  22.584  19.626   3.908 -0.0086  0.2773  0.0826
    1DPPC   NC318553  17.838  16.027   1.517 -0.0400 -0.0216 -0.0008
    1DPPC   PO418554  17.570  16.085   1.958 -0.4337 -0.1123 -0.4468
    1DPPC   GL118555  17.767  16.025   2.390 -0.1380  0.1410  0.1837
    1DPPC   GL218556  17.835  15.696   2.479  0.0900  0.3244 -0.1992
    1DPPC   C1A18557  17.628  16.092   2.742 -0.0508  0.1888  0.0301
    1DPPC   C2A18558  17.720  16.123   3.160 -0.1542  0.1236 -0.2485
    1DPPC   C3A18559  17.804  15.833   3.579  0.0795  0.3095  0.0699
    1DPPC   C4A18560  17.808  15.918   3.947 -0.1171  0.2643 -0.0561
    1DPPC   C1B18561  17.852  15.691   2.872 -0.0550 -0.0031  0.1478
    1DPPC   C2B18562  17.854  15.490   3.224  0.3842  0.3511 -0.0176
    1DPPC   C3B18563  18.057  15.380   3.559  0.2444  0.0380 -0.1400
    1DPPC   C4B18564  17.977  15.445   3.938  0.2415 -0.1855  0.0682
    1DPPC   NC318565  22.885  18.905   1.631  0.0655 -0.0791  0.0930
    1DPPC   PO418566  23.104  19.015   2.078 -0.0187  0.1872  0.1919
    1DPPC   GL118567  23.297  19.094   2.589 -0.1008 -0.1095  0.0214
    1DPPC   GL218568  23.575  18.793   2.718  0.1865 -0.0433  0.0039
    1DPPC   C1A18569  23.261  19.046   3.017 -0.0435  0.2480  0.1967
    1DPPC   C2A18570  23.253  19.098   3.425  0.0610  0.2939  0.0271
    1DPPC   C3A18571  23.475  18.985   3.731  0.0175  0.1822  0.0958
    1DPPC   C4A18572  23.914  18.914   3.884 -0.3556 -0.0434  0.1125
    1DPPC   C1B18573  23.718  18.675   3.152  0.2269  0.0151 -0.2340
    1DPPC   C2B18574  23.671  18.511   3.604 -0.0014 -0.0215 -0.0171
    1DPPC   C3B18575  23.657  18.489   4.099  0.2986  0.0148  0.2334
    1DPPC   C4B18576  23.366  18.531   4.419  0.0211 -0.0657 -0.0411
    1DPPC   NC318577  12.117  18.159   2.259  0.0279 -0.0665  0.1079
    1DPPC   PO418578  11.693  18.237   2.292 -0.0566 -0.1488  0.0937
    1DPPC   GL118579  11.533  18.437   2.651  0.0279 -0.0656  0.0431
    1DPPC   GL218580  11.284  18.711   2.653 -0.0328  0.2029 -0.1500
    1DPPC   C1A18581  11.756  18.386   3.150  0.0029  0.1258 -0.2520
    1DPPC   C2A18582  11.700  18.403   3.568 -0.1488  0.0594  0.2667
    1DPPC   C3A18583  11.628  18.186   3.895 -0.0047  0.1553  0.0994
    1DPPC   C4A18584  11.701  18.049   4.300  0.0116 -0.0138  0.1149
    1DPPC   C1B18585  11.327  18.678   3.102  0.1013  0.2881  0.1128
    1DPPC   C2B18586  11.211  18.612   3.440  0.0526 -0.2159  0.1553
    1DPPC   C3B18587  11.100  18.549   3.862  0.0498 -0.0788 -0.6187
    1DPPC   C4B18588  11.334  18.488   4.184  0.1255  0.3028  0.1100
    1DPPC   NC318589   8.379  11.821   3.413  0.4200 -0.1282  0.0317
    1DPPC   PO418590   8.131  11.761   3.725  0.1365 -0.1526  0.0552
    1DPPC   GL118591   8.231  11.679   4.137  0.2853 -0.1325  0.1897
    1DPPC   GL218592   8.041  11.449   4.391 -0.0720  0.0785  0.0185
    1DPPC   C1A18593   8.330  11.769   4.622 -0.0070  0.3774 -0.0534
    1DPPC   C2A18594   8.455  11.832   4.994 -0.2014 -0.0001  0.0349
    1DPPC   C3A18595   8.496  11.761   5.456  0.0303  0.1329  0.0815
    1DPPC   C4A18596   8.405  11.510   5.806 -0.0760  0.1183  0.1507
    1DPPC   C1B18597   7.908  11.461   4.789  0.2153 -0.0600  0.0122
    1DPPC   C2B18598   7.596  11.500   5.098 -0.0036 -0.0275 -0.3140
    1DPPC   C3B18599   7.244  11.337   5.258  0.2894  0.0872 -0.1396
    1DPPC   C4B18600   7.039  11.217   5.672 -0.0649 -0.2398  0.0840
    1DPPC   NC318601  28.845  24.468   2.173 -0.0822 -0.1863  0.1622
    1DPPC   PO418602  29.203  24.134   2.182  0.0585  0.0575  0.1923
    1DPPC   GL118603  29.139  24.023   2.549  0.0572  0.0721  0.3263
    1DPPC   GL218604  29.097  23.681   2.588  0.0057  0.2677 -0.2383
    1DPPC   C1A18605  29.032  24.287   2.958 -0.3448  0.1320  0.0897
    1DPPC   C2A18606  28.796  24.335   3.373 -0.0102  0.2488  0.3041
    1DPPC   C3A18607  28.606  24.047   3.531 -0.0369  0.4180 -0.0272
    1DPPC   C4A18608  28.609  23.841   3.926 -0.1675  0.5818  0.2058
    1DPPC   C1B18609  29.103  23.783   3.054 -0.2699 -0.1531 -0.0981
    1DPPC   C2B18610  29.084  23.881   3.495  0.2002  0.1457 -0.0292
    1DPPC   C3B18611  28.969  24.203   3.836  0.0892 -0.1868 -0.0383
    1DPPC   C4B18612  28.670  24.408   4.119  0.1746 -0.0795 -0.0037
    1DPPC   NC318613  10.082  10.169   3.022 -0.0656 -0.1150  0.0239
    1DPPC   PO418614  10.161  10.547   3.274  0.0082  0.1839 -0.0161
    1DPPC   GL118615  10.285  10.610   3.629  0.1884  0.1194  0.0525
    1DPPC   GL218616  10.099  10.486   3.826  0.0430  0.0934  0.2425
    1DPPC   C1A18617  10.355  10.960   3.914 -0.2508 -0.1250  0.0709
    1DPPC   C2A18618  10.372  11.121   4.329  0.0038 -0.0145  0.2196
    1DPPC   C3A18619  10.556  11.196   4.767  0.0448  0.3190 -0.1070
    1DPPC   C4A18620  10.532  11.293   5.146  0.1972  0.2141 -0.1079
    1DPPC   C1B18621  10.269  10.609   4.240 -0.0722 -0.2928 -0.1600
    1DPPC   C2B18622  10.356  10.677   4.668  0.1388 -0.0498 -0.0378
    1DPPC   C3B18623  10.396  10.745   5.058  0.0848  0.1031 -0.1048
    1DPPC   C4B18624  10.377  10.930   5.469 -0.2307 -0.1122 -0.0582
    1DPPC   NC318625  16.451  19.003   1.741  0.0153  0.2627  0.2733
    1DPPC   PO418626  16.526  18.973   2.199  0.0867  0.0709  0.0306
    1DPPC   GL118627  16.587  19.002   2.617 -0.0635  0.0370  0.2315
    1DPPC   GL218628  16.366  19.263   2.600  0.0203  0.2432 -0.2077
    1DPPC   C1A18629  16.472  18.810   3.007  0.1251  0.2327 -0.0990
    1DPPC   C2A18630  16.341  18.876   3.429 -0.2226 -0.2065 -0.2324
    1DPPC   C3A18631  16.503  18.893   3.851 -0.0869 -0.0582  0.1257
    1DPPC   C4A18632  16.459  18.961   4.292 -0.0570 -0.0707  0.1550
    1DPPC   C1B18633  16.277  19.338   3.018  0.3175  0.2697 -0.0337
    1DPPC   C2B18634  16.214  19.317   3.469  0.1407 -0.0894 -0.1275
    1DPPC   C3B18635  16.318  19.336   3.925 -0.0157 -0.2763 -0.0136
    1DPPC   C4B18636  16.163  19.516   4.267 -0.0582  0.0726 -0.0778
    1DPPC   NC318637  19.649  16.870   2.199 -0.2371  0.1846 -0.1338
    1DPPC   PO418638  20.054  16.543   2.141 -0.2412 -0.1439  0.0824
    1DPPC   GL118639  20.122  16.848   2.525  0.0178  0.0993 -0.3495
    1DPPC   GL218640  19.860  17.056   2.589  0.0063 -0.0795  0.1662
    1DPPC   C1A18641  20.342  16.884   2.972 -0.0151 -0.1459 -0.0285
    1DPPC   C2A18642  20.351  16.808   3.309  0.0794 -0.0398 -0.1802
    1DPPC   C3A18643  20.368  16.952   3.740  0.0926 -0.1534 -0.1043
    1DPPC   C4A18644  20.208  17.047   4.148 -0.2656  0.1850 -0.2007
    1DPPC   C1B18645  19.840  16.914   3.005 -0.3106 -0.0179 -0.2671
    1DPPC   C2B18646  19.876  16.871   3.492 -0.1258  0.2701 -0.2030
    1DPPC   C3B18647  19.806  16.851   3.938  0.0360  0.0284 -0.1577
    1DPPC   C4B18648  19.962  16.661   4.306 -0.1660 -0.0635 -0.0842
    1DPPC   NC318649  21.883  17.942   2.050 -0.0443 -0.0315  0.1769
    1DPPC   PO418650  22.388  17.590   2.233  0.0171  0.0539  0.0248
    1DPPC   GL118651  22.726  17.497   2.575  0.0245 -0.0314 -0.1740
    1DPPC   GL218652  22.846  17.815   2.696 -0.3569  0.0973 -0.0562
    1DPPC   C1A18653  22.830  17.379   3.035  0.2007  0.1017  0.1191
    1DPPC   C2A18654  22.957  17.185   3.478  0.3479 -0.0714 -0.1881
    1DPPC   C3A18655  22.947  17.013   3.865 -0.0166 -0.1399  0.2461
    1DPPC   C4A18656  23.008  16.725   4.192 -0.1249  0.2669  0.1018
    1DPPC   C1B18657  23.127  17.747   3.068 -0.2245  0.0758  0.4382
    1DPPC   C2B18658  23.337  17.513   3.289  0.0073 -0.0600 -0.3673
    1DPPC   C3B18659  23.381  17.322   3.738  0.0610  0.2176 -0.0660
    1DPPC   C4B18660  23.130  17.206   4.261 -0.1037  0.0778  0.1873
    1DPPC   NC318661  14.464  14.608   2.207  0.2793 -0.0363  0.0534
    1DPPC   PO418662  14.434  14.120   2.413  0.0267 -0.0544 -0.0894
    1DPPC   GL118663  14.402  14.138   2.854 -0.0921  0.1370 -0.0130
    1DPPC   GL218664  14.344  13.778   2.892  0.1677  0.1516  0.2695
    1DPPC   C1A18665  14.499  14.166   3.229  0.2731 -0.2735 -0.0043
    1DPPC   C2A18666  14.575  14.203   3.610 -0.1084  0.0651  0.4715
    1DPPC   C3A18667  14.731  14.410   4.022 -0.1456 -0.2227  0.1411
    1DPPC   C4A18668  14.786  14.397   4.366 -0.0091 -0.0677 -0.2243
    1DPPC   C1B18669  14.188  13.826   3.289 -0.0945 -0.0965 -0.2870
    1DPPC   C2B18670  14.251  13.826   3.779 -0.0958  0.0796 -0.2476
    1DPPC   C3B18671  14.352  14.049   4.090  0.1124 -0.0803  0.1632
    1DPPC   C4B18672  14.577  13.975   4.434  0.0349  0.0025  0.0891
    1DPPC   NC318673  22.134  11.915   2.594 -0.2696  0.0278 -0.1754
    1DPPC   PO418674  21.758  12.220   2.388  0.1054  0.0917  0.2015
    1DPPC   GL118675  21.803  12.344   2.786 -0.1036  0.1222 -0.0622
    1DPPC   GL218676  21.967  12.157   3.049 -0.3473  0.3437  0.1821
    1DPPC   C1A18677  21.863  12.663   3.070  0.0451 -0.0121  0.0213
    1DPPC   C2A18678  21.827  12.714   3.468 -0.2066 -0.1726  0.0286
    1DPPC   C3A18679  21.771  12.872   3.973 -0.1547  0.0772 -0.0354
    1DPPC   C4A18680  21.620  12.661   4.357 -0.2068  0.3533 -0.2123
    1DPPC   C1B18681  21.995  12.239   3.500 -0.1974  0.0251  0.3941
    1DPPC   C2B18682  22.196  12.269   3.893  0.0025 -0.1808 -0.1989
    1DPPC   C3B18683  22.073  12.357   4.413 -0.0346  0.0213 -0.2374
    1DPPC   C4B18684  22.215  12.022   4.677 -0.2354 -0.3769  0.0360
    1DPPC   NC318685  13.577  20.365   2.276 -0.2799 -0.2016 -0.1311
    1DPPC   PO418686  13.636  20.603   2.604 -0.2405  0.0166  0.0498
    1DPPC   GL118687  13.672  20.758   3.014 -0.1094  0.0626 -0.0354
    1DPPC   GL218688  13.916  21.034   3.175  0.0894 -0.0964  0.4235
    1DPPC   C1A18689  13.613  20.787   3.463 -0.1041 -0.1378 -0.1957
    1DPPC   C2A18690  13.647  20.743   3.875 -0.0402  0.0330  0.2479
    1DPPC   C3A18691  13.513  20.754   4.145 -0.0884 -0.0833 -0.0320
    1DPPC   C4A18692  13.410  20.731   4.621  0.0682  0.1206 -0.1652
    1DPPC   C1B18693  14.057  21.113   3.641 -0.4288  0.0995 -0.5104
    1DPPC   C2B18694  14.014  21.209   3.969  0.3344 -0.0848 -0.1468
    1DPPC   C3B18695  14.100  21.429   4.279 -0.0828  0.1593  0.1155
    1DPPC   C4B18696  14.073  21.782   4.621 -0.1060  0.0378 -0.1149
    1DPPC   NC318697  16.438  21.152   2.482 -0.1748 -0.2950 -0.1857
    1DPPC   PO418698  16.702  20.726   2.529  0.0231 -0.7336  0.1926
    1DPPC   GL118699  16.961  20.674   2.920 -0.1554  0.1034  0.0819
    1DPPC   GL218700  17.227  20.941   2.839  0.1544  0.0705  0.2366
    1DPPC   C1A18701  17.024  20.683   3.315 -0.3993 -0.1452  0.0546
    1DPPC   C2A18702  17.047  20.587   3.825 -0.2029  0.2024 -0.0585
    1DPPC   C3A18703  17.109  20.610   4.302  0.0450 -0.1227 -0.2608
    1DPPC   C4A18704  16.948  20.952   4.566  0.2918  0.2450  0.0617
    1DPPC   C1B18705  17.375  21.058   3.341  0.0159  0.0456  0.1314
    1DPPC   C2B18706  17.457  21.068   3.789  0.2483 -0.0746  0.0247
    1DPPC   C3B18707  17.331  21.128   4.261  0.1606 -0.1035 -0.0865
    1DPPC   C4B18708  17.146  21.552   4.506  0.0275 -0.0191  0.2514
    1DPPC   NC318709  14.337  17.013   2.254  0.2652  0.0319  0.0266
    1DPPC   PO418710  14.778  16.951   2.406  0.2326  0.2521  0.1118
    1DPPC   GL118711  14.886  16.935   2.821  0.0359  0.0640 -0.0398
    1DPPC   GL218712  14.911  16.564   2.834 -0.1289 -0.3400  0.0759
    1DPPC   C1A18713  14.908  16.946   3.214  0.1105 -0.1715  0.0786
    1DPPC   C2A18714  14.847  16.967   3.664  0.0332  0.1162  0.0554
    1DPPC   C3A18715  14.874  17.176   4.004 -0.0144  0.0813 -0.0491
    1DPPC   C4A18716  14.709  16.995   4.341 -0.2367  0.3291 -0.0672
    1DPPC   C1B18717  15.007  16.489   3.273  0.4859 -0.0556 -0.1959
    1DPPC   C2B18718  14.946  16.508   3.603 -0.1316 -0.3918 -0.0309
    1DPPC   C3B18719  14.867  16.617   4.089  0.0353 -0.0018 -0.3002
    1DPPC   C4B18720  14.758  16.480   4.588  0.0595  0.1143  0.0297
    1DPPC   NC318721  15.694  19.994   2.496  0.0807 -0.0762 -0.0781
    1DPPC   PO418722  15.990  20.316   2.600 -0.0405  0.1142  0.0583
    1DPPC   GL118723  16.243  20.157   2.975  0.0670 -0.0748 -0.0735
    1DPPC   GL218724  16.011  20.415   3.115 -0.1943 -0.0303 -0.0444
    1DPPC   C1A18725  16.321  20.195   3.421 -0.0372 -0.1067  0.1168
    1DPPC   C2A18726  16.221  20.238   3.819  0.0047 -0.0625 -0.0655
    1DPPC   C3A18727  16.121  20.460   4.244  0.0667 -0.0022 -0.1349
    1DPPC   C4A18728  16.316  20.387   4.569  0.1055 -0.0610  0.1565
    1DPPC   C1B18729  15.856  20.438   3.523 -0.0024 -0.1310  0.0988
    1DPPC   C2B18730  15.741  20.478   3.923 -0.0204  0.1687 -0.0341
    1DPPC   C3B18731  15.613  20.401   4.293 -0.0368  0.0600 -0.2298
    1DPPC   C4B18732  15.718  20.406   4.798 -0.0726 -0.2423  0.1228
    1DPPC   NC318733  18.903  15.919   1.589  0.2205 -0.0384  0.2246
    1DPPC   PO418734  19.003  15.565   1.844 -0.0369 -0.1076  0.0852
    1DPPC   GL118735  18.765  15.468   2.280 -0.0714  0.0339 -0.0011
    1DPPC   GL218736  18.897  15.078   2.270 -0.2644  0.1690 -0.1366
    1DPPC   C1A18737  18.918  15.548   2.754  0.1373  0.1465 -0.0661
    1DPPC   C2A18738  18.925  15.584   3.257 -0.2291  0.1457  0.1426
    1DPPC   C3A18739  18.927  15.565   3.648 -0.1105 -0.0136 -0.3640
    1DPPC   C4A18740  18.950  15.539   4.100  0.2511 -0.0375 -0.0087
    1DPPC   C1B18741  18.614  15.038   2.542  0.0916  0.0494  0.0418
    1DPPC   C2B18742  18.642  15.085   2.980 -0.2465 -0.1211  0.2663
    1DPPC   C3B18743  18.579  15.195   3.390  0.0709 -0.1657  0.0489
    1DPPC   C4B18744  18.767  15.152   3.819  0.1268  0.0616 -0.0319
    1DPPC   NC318745  20.473  16.816   2.110  0.1468  0.0645 -0.1605
    1DPPC   PO418746  20.557  16.442   2.024 -0.0833  0.0909 -0.1573
    1DPPC   GL118747  20.679  16.366   2.490 -0.3347  0.3079  0.2228
    1DPPC   GL218748  20.395  16.303   2.589  0.1553 -0.0382 -0.2013
    1DPPC   C1A18749  21.016  16.310   2.811 -0.0937  0.0507 -0.0351
    1DPPC   C2A18750  21.137  16.320   3.252 -0.1333 -0.2763 -0.1844
    1DPPC   C3A18751  21.160  16.330   3.613  0.1677  0.1139 -0.1352
    1DPPC   C4A18752  21.170  16.310   4.033 -0.0630 -0.0483 -0.3360
    1DPPC   C1B18753  20.524  16.402   2.981 -0.3486  0.1482 -0.2051
    1DPPC   C2B18754  20.607  16.349   3.356 -0.0095 -0.1936 -0.0428
    1DPPC   C3B18755  20.573  16.507   3.648 -0.1792  0.1031  0.4610
    1DPPC   C4B18756  20.638  16.605   4.078  0.1573 -0.2423 -0.0756
    1DPPC   NC318757   9.342  18.829   1.760 -0.2192 -0.0028 -0.2043
    1DPPC   PO418758   9.456  18.771   2.233  0.0694 -0.0767 -0.1304
    1DPPC   GL118759   9.614  19.076   2.495  0.1472 -0.0503  0.0239
    1DPPC   GL218760   9.465  19.367   2.603 -0.2590  0.0126  0.2809
    1DPPC   C1A18761   9.580  18.835   2.923  0.3684  0.1396  0.0245
    1DPPC   C2A18762   9.427  18.911   3.346  0.1623 -0.0446  0.1784
    1DPPC   C3A18763   9.284  18.976   3.650 -0.0562  0.2944  0.1944
    1DPPC   C4A18764   9.306  19.246   4.040 -0.1074 -0.0990  0.0889
    1DPPC   C1B18765   9.289  19.356   3.144  0.0549 -0.0846  0.1482
    1DPPC   C2B18766   9.392  19.502   3.581 -0.0475  0.0937 -0.1573
    1DPPC   C3B18767   9.523  19.724   3.942  0.1488  0.0863 -0.1154
    1DPPC   C4B18768   9.478  19.974   4.238  0.2810 -0.0718 -0.0825
    1DPPC   NC318769  15.518   7.074   2.899  0.1437 -0.0464 -0.1927
    1DPPC   PO418770  15.782   7.293   3.107 -0.0498  0.1115 -0.1100
    1DPPC   GL118771  15.571   7.306   3.617  0.2906 -0.0626  0.1015
    1DPPC   GL218772  15.394   7.507   3.628  0.1321  0.1977 -0.1392
    1DPPC   C1A18773  15.702   7.032   4.029 -0.2383 -0.0654 -0.0384
    1DPPC   C2A18774  15.831   7.008   4.390  0.2648 -0.2029  0.0244
    1DPPC   C3A18775  16.054   6.901   4.746 -0.3693  0.1283 -0.0278
    1DPPC   C4A18776  16.250   6.832   5.157 -0.1008 -0.0455 -0.1101
    1DPPC   C1B18777  15.588   7.535   4.069 -0.0384 -0.0932  0.2746
    1DPPC   C2B18778  15.801   7.512   4.461  0.0267  0.1659  0.3221
    1DPPC   C3B18779  15.977   7.670   4.823 -0.2594  0.1185  0.1445
    1DPPC   C4B18780  15.976   7.543   5.336  0.0742 -0.2806  0.0108
    1DPPC   NC318781  22.835  12.400   2.531 -0.0856  0.2616  0.1626
    1DPPC   PO418782  22.512  12.762   2.517 -0.0372  0.0695  0.2582
    1DPPC   GL118783  22.885  12.846   2.779 -0.1849  0.2786  0.0063
    1DPPC   GL218784  22.775  12.633   3.026 -0.3886  0.1610  0.2034
    1DPPC   C1A18785  23.129  13.257   2.884 -0.2835  0.0784 -0.0707
    1DPPC   C2A18786  23.207  13.431   3.290 -0.1450 -0.1019  0.1165
    1DPPC   C3A18787  23.292  13.334   3.735  0.1333  0.0358 -0.0116
    1DPPC   C4A18788  22.954  13.537   4.065  0.0716  0.0564  0.0559
    1DPPC   C1B18789  22.793  12.567   3.444  0.0596  0.1502 -0.1772
    1DPPC   C2B18790  22.675  12.473   3.854 -0.1994  0.0100 -0.1103
    1DPPC   C3B18791  22.567  12.487   4.222  0.0625  0.1311  0.2414
    1DPPC   C4B18792  22.801  12.660   4.529 -0.2540 -0.1163  0.1782
    1DPPC   NC318793  12.944   9.264   3.282  0.0399 -0.1511 -0.2562
    1DPPC   PO418794  12.459   9.200   3.450  0.1542  0.1231 -0.1444
    1DPPC   GL118795  12.554   9.288   3.857  0.1339 -0.0144 -0.0805
    1DPPC   GL218796  12.274   9.373   3.960  0.2200  0.0028 -0.0343
    1DPPC   C1A18797  12.520   9.511   4.288 -0.0089  0.0830 -0.3882
    1DPPC   C2A18798  12.508   9.651   4.682 -0.2355  0.0283 -0.1880
    1DPPC   C3A18799  12.724   9.641   5.117 -0.2220 -0.1869 -0.0411
    1DPPC   C4A18800  12.692   9.616   5.530 -0.2971 -0.2193 -0.2940
    1DPPC   C1B18801  12.061   9.094   4.074  0.0080  0.1070 -0.0259
    1DPPC   C2B18802  11.754   8.848   4.238  0.0965  0.1079 -0.0373
    1DPPC   C3B18803  11.603   8.593   4.517 -0.2145  0.1108 -0.0841
    1DPPC   C4B18804  11.545   8.440   4.871 -0.2106 -0.0676  0.0042
    1DPPC   NC318805  20.388  19.276   1.754  0.2387  0.0876  0.1799
    1DPPC   PO418806  20.387  19.445   2.159 -0.2758  0.1010 -0.2369
    1DPPC   GL118807  20.320  19.190   2.575  0.0431 -0.1588  0.1448
    1DPPC   GL218808  20.587  19.318   2.659  0.2601  0.1072 -0.2124
    1DPPC   C1A18809  20.111  19.119   2.959  0.0459  0.0539 -0.0153
    1DPPC   C2A18810  20.060  18.951   3.317 -0.0774  0.1862  0.0035
    1DPPC   C3A18811  20.140  19.222   3.578  0.1885 -0.0078  0.1865
    1DPPC   C4A18812  20.045  19.352   3.972 -0.0925  0.0680  0.3013
    1DPPC   C1B18813  20.493  19.365   3.075 -0.0466 -0.3140  0.0484
    1DPPC   C2B18814  20.568  19.424   3.447 -0.0311  0.1743 -0.1417
    1DPPC   C3B18815  20.501  19.444   3.852 -0.3079 -0.0964 -0.2774
    1DPPC   C4B18816  20.305  19.866   4.142 -0.0072 -0.0326 -0.0770
    1DPPC   NC318817  25.705  23.553   2.573 -0.1373  0.0115 -0.0519
    1DPPC   PO418818  25.314  23.414   2.666  0.0477 -0.1798 -0.0310
    1DPPC   GL118819  25.227  23.419   3.082 -0.0474  0.0938 -0.0926
    1DPPC   GL218820  24.901  23.491   3.236 -0.0528  0.1062  0.1692
    1DPPC   C1A18821  25.361  23.342   3.543  0.1601  0.4158 -0.0289
    1DPPC   C2A18822  25.503  23.396   3.987  0.2528  0.1795  0.1208
    1DPPC   C3A18823  25.765  23.343   4.373 -0.0152  0.0409 -0.1738
    1DPPC   C4A18824  25.755  23.803   4.636  0.0113 -0.1040 -0.1302
    1DPPC   C1B18825  24.775  23.233   3.601 -0.2372 -0.0698  0.2023
    1DPPC   C2B18826  24.962  23.260   3.952  0.1878 -0.0198 -0.3678
    1DPPC   C3B18827  24.902  23.492   4.248 -0.1059  0.0593 -0.0709
    1DPPC   C4B18828  24.782  23.866   4.509  0.3241  0.0877 -0.1758
    1DPPC   NC318829   6.803  17.073   2.386 -0.2435 -0.1210  0.3146
    1DPPC   PO418830   7.124  17.365   2.512  0.1003  0.1664 -0.1222
    1DPPC   GL118831   6.908  17.320   2.941  0.0498 -0.0831  0.2060
    1DPPC   GL218832   7.110  17.117   3.204 -0.0875 -0.0228  0.1440
    1DPPC   C1A18833   6.826  17.532   3.326 -0.0895  0.0173  0.2688
    1DPPC   C2A18834   6.925  17.587   3.767  0.0946  0.0702  0.0126
    1DPPC   C3A18835   6.614  17.679   4.126 -0.2921  0.1987 -0.0894
    1DPPC   C4A18836   6.199  17.657   4.221  0.3506  0.2247 -0.2084
    1DPPC   C1B18837   6.754  17.098   3.548 -0.2272 -0.0440  0.0039
    1DPPC   C2B18838   6.408  17.355   3.742 -0.0847  0.0631  0.1990
    1DPPC   C3B18839   6.135  17.782   3.754 -0.0819  0.1439 -0.0182
    1DPPC   C4B18840   6.010  18.168   3.615  0.1130 -0.0830 -0.2137
    1DPPC   NC318841  22.191  18.823   2.362 -0.3768  0.0624 -0.1827
    1DPPC   PO418842  21.746  18.679   2.511  0.2241  0.1235 -0.1620
    1DPPC   GL118843  21.708  18.529   2.892  0.1012 -0.0966  0.2499
    1DPPC   GL218844  21.989  18.460   2.950  0.0900  0.1636 -0.2343
    1DPPC   C1A18845  21.549  18.659   3.190  0.0326  0.0865  0.3292
    1DPPC   C2A18846  21.753  18.831   3.577  0.3107  0.1350 -0.0639
    1DPPC   C3A18847  21.865  19.095   3.868  0.4933  0.1409  0.1564
    1DPPC   C4A18848  21.640  19.252   4.280 -0.0974  0.2743  0.2226
    1DPPC   C1B18849  22.034  18.514   3.326  0.1445  0.0502  0.0714
    1DPPC   C2B18850  22.126  18.498   3.665 -0.1627 -0.1254  0.2339
    1DPPC   C3B18851  22.079  18.654   4.023 -0.3412 -0.3652  0.2399
    1DPPC   C4B18852  22.150  18.567   4.490 -0.0176 -0.0244  0.1226
    1DPPC   NC318853  18.947  10.402   2.315  0.0180  0.0353  0.0981
    1DPPC   PO418854  19.159  10.069   2.517 -0.2319 -0.1774  0.3009
    1DPPC   GL118855  19.356  10.195   3.024 -0.0991  0.0039 -0.0936
    1DPPC   GL218856  19.621  10.263   2.917  0.0055  0.3025  0.3040
    1DPPC   C1A18857  19.270  10.317   3.491 -0.2083 -0.2979 -0.1148
    1DPPC   C2A18858  19.371  10.223   3.898  0.2328 -0.1034 -0.0198
    1DPPC   C3A18859  19.455   9.837   4.082  0.1007  0.3823 -0.2454
    1DPPC   C4A18860  19.901   9.628   4.263  0.1020 -0.3060 -0.1331
    1DPPC   C1B18861  19.797  10.264   3.280 -0.0639 -0.1638 -0.0967
    1DPPC   C2B18862  19.831  10.229   3.713  0.3861  0.2099 -0.2304
    1DPPC   C3B18863  19.854  10.118   4.188  0.0348 -0.1831 -0.2028
    1DPPC   C4B18864  19.617  10.198   4.483  0.2506  0.0231  0.0629
    1DPPC   NC318865  17.923  17.225   1.815 -0.1307 -0.2996  0.1614
    1DPPC   PO418866  18.216  17.428   1.983 -0.2333  0.0360 -0.0168
    1DPPC   GL118867  18.366  17.306   2.376 -0.0502  0.1624  0.0701
    1DPPC   GL218868  18.294  16.989   2.535  0.1381  0.3211  0.1715
    1DPPC   C1A18869  18.555  17.373   2.775 -0.0167  0.7089 -0.0617
    1DPPC   C2A18870  18.562  17.310   3.155 -0.1133  0.1967 -0.0439
    1DPPC   C3A18871  18.624  17.200   3.564 -0.2439 -0.0959 -0.1279
    1DPPC   C4A18872  18.625  17.261   3.995  0.1068 -0.2939 -0.1308
    1DPPC   C1B18873  18.169  17.117   2.889  0.0397 -0.0659  0.0909
    1DPPC   C2B18874  18.177  17.031   3.348  0.2150  0.0854 -0.2822
    1DPPC   C3B18875  18.170  17.020   3.827 -0.1505 -0.0474  0.3108
    1DPPC   C4B18876  18.110  17.033   4.230 -0.0284  0.1275 -0.3454
    1DPPC   NC318877  21.888  10.714   2.092 -0.2541  0.0650  0.1690
    1DPPC   PO418878  22.131  10.725   2.472 -0.2858  0.2423  0.1463
    1DPPC   GL118879  22.124  10.765   2.896  0.3241  0.0395 -0.1801
    1DPPC   GL218880  21.938  11.124   3.003  0.2206 -0.0104  0.0518
    1DPPC   C1A18881  22.203  10.626   3.281 -0.3630 -0.0015  0.1334
    1DPPC   C2A18882  22.266  10.565   3.749  0.0191  0.1171  0.0113
    1DPPC   C3A18883  22.505  10.366   4.099 -0.2056  0.0376  0.2100
    1DPPC   C4A18884  22.867  10.213   4.296  0.1349 -0.3512  0.1294
    1DPPC   C1B18885  21.933  11.028   3.406  0.2286 -0.0976 -0.0625
    1DPPC   C2B18886  21.704  10.882   3.803 -0.5345  0.0938  0.0322
    1DPPC   C3B18887  21.536  10.601   4.067 -0.1336 -0.1606 -0.0211
    1DPPC   C4B18888  21.517  10.201   4.349 -0.3179 -0.1340  0.0669
    1DPPC   NC318889  12.280  17.485   2.490 -0.0721  0.1737  0.0159
    1DPPC   PO418890  12.441  17.016   2.408  0.0361 -0.3029  0.3272
    1DPPC   GL118891  12.489  17.144   2.825 -0.4027 -0.0810  0.2551
    1DPPC   GL218892  12.676  17.445   2.777  0.2530  0.1767 -0.3301
    1DPPC   C1A18893  12.601  17.261   3.268 -0.1357  0.1188 -0.4035
    1DPPC   C2A18894  12.565  17.238   3.707  0.0871  0.2105 -0.1279
    1DPPC   C3A18895  12.515  17.211   4.114  0.0075  0.0293  0.1405
    1DPPC   C4A18896  12.609  17.345   4.549  0.0456  0.2246  0.0612
    1DPPC   C1B18897  13.007  17.517   3.129  0.2525 -0.0515  0.1637
    1DPPC   C2B18898  13.019  17.460   3.541  0.3432 -0.0831 -0.1706
    1DPPC   C3B18899  12.987  17.419   3.956  0.1713  0.0602  0.0175
    1DPPC   C4B18900  13.014  17.119   4.253 -0.0492 -0.0737  0.1832
    1DPPC   NC318901  11.378   1.150   3.818  0.2426 -0.0256  0.3133
    1DPPC   PO418902  11.029   1.184   3.986 -0.0543 -0.1691 -0.0694
    1DPPC   GL118903  11.220   1.261   4.405 -0.2754 -0.1624 -0.0202
    1DPPC   GL218904  11.651   1.225   4.320 -0.1419 -0.1108 -0.2022
    1DPPC   C1A18905  11.494   1.159   4.850 -0.1990 -0.0201 -0.2002
    1DPPC   C2A18906  11.506   1.046   5.316 -0.2584  0.1545  0.0639
    1DPPC   C3A18907  11.187   0.788   5.525 -0.0843 -0.2269  0.0646
    1DPPC   C4A18908  10.965   0.520   5.264  0.0251 -0.2011  0.1668
    1DPPC   C1B18909  11.820   1.477   4.648 -0.5597  0.2031  0.1330
    1DPPC   C2B18910  11.773   1.615   5.076 -0.1154 -0.1163 -0.0286
    1DPPC   C3B18911  11.529   1.921   5.156 -0.1670  0.2531  0.1047
    1DPPC   C4B18912  11.090   1.981   5.038  0.1190  0.0262 -0.1348
    1DPPC   NC318913  22.570  17.205   1.891  0.3085  0.0643 -0.1163
    1DPPC   PO418914  22.243  16.983   1.969 -0.0125  0.0438  0.0637
    1DPPC   GL118915  22.136  16.997   2.478  0.0369  0.0217  0.3310
    1DPPC   GL218916  22.181  17.240   2.530 -0.0202  0.2615 -0.0425
    1DPPC   C1A18917  22.250  16.716   2.772  0.1039  0.2408 -0.0865
    1DPPC   C2A18918  22.419  16.297   2.974 -0.0129 -0.1042 -0.0378
    1DPPC   C3A18919  22.626  16.269   3.307  0.2808 -0.3190  0.0144
    1DPPC   C4A18920  22.879  16.033   3.482 -0.0146 -0.3374 -0.3005
    1DPPC   C1B18921  22.405  17.223   2.817  0.1831  0.4363 -0.2653
    1DPPC   C2B18922  22.432  17.042   3.217 -0.2894  0.3732  0.1613
    1DPPC   C3B18923  22.404  16.926   3.628  0.4400  0.2221  0.0425
    1DPPC   C4B18924  22.534  17.118   4.118 -0.0871 -0.1355  0.0923
    1DPPC   NC318925  14.491  20.640   2.522  0.0995 -0.1634 -0.3316
    1DPPC   PO418926  14.540  20.257   2.467 -0.2504  0.1800 -0.0157
    1DPPC   GL118927  14.550  20.037   2.769 -0.0570 -0.1359  0.2809
    1DPPC   GL218928  14.819  20.114   2.869 -0.2581  0.1635  0.1445
    1DPPC   C1A18929  14.460  19.955   3.178 -0.2371 -0.0896  0.0468
    1DPPC   C2A18930  14.436  19.949   3.591 -0.0872 -0.0282 -0.1722
    1DPPC   C3A18931  14.367  19.842   4.096  0.1153  0.1868 -0.0314
    1DPPC   C4A18932  14.330  19.887   4.512  0.1017 -0.1959 -0.1166
    1DPPC   C1B18933  14.925  20.075   3.197 -0.1522  0.0024  0.0812
    1DPPC   C2B18934  14.917  19.978   3.608 -0.1439  0.1556 -0.0284
    1DPPC   C3B18935  14.892  19.889   4.053 -0.2351 -0.3911 -0.2713
    1DPPC   C4B18936  14.833  19.701   4.349 -0.1505  0.1852 -0.0337
    1DPPC   NC318937  10.674   0.200   3.164 -0.1178 -0.1698  0.0619
    1DPPC   PO418938  10.429   0.472   3.348 -0.3114 -0.0107 -0.1407
    1DPPC   GL118939  10.466   0.658   3.854 -0.1481  0.0988  0.0167
    1DPPC   GL218940  10.694   0.790   3.969  0.2403  0.0710 -0.2413
    1DPPC   C1A18941  10.242   0.684   4.402 -0.4289 -0.0451 -0.0358
    1DPPC   C2A18942   9.887   0.420   4.607  0.1625  0.3389 -0.0359
    1DPPC   C3A18943   9.705   0.059   4.764  0.2189  0.0978  0.1860
    1DPPC   C4A18944   9.715  -0.168   5.172 -0.1421  0.1196 -0.2439
    1DPPC   C1B18945  10.784   0.545   4.375 -0.1424  0.2388  0.1569
    1DPPC   C2B18946  10.860   0.401   4.721 -0.0274  0.0999  0.1542
    1DPPC   C3B18947  10.791   0.075   5.067  0.4183 -0.0674 -0.0579
    1DPPC   C4B18948  10.846  -0.011   5.538  0.2223  0.1207  0.0446
    1DPPC   NC318949   0.314  22.283   1.831 -0.1392 -0.1236  0.3479
    1DPPC   PO418950   0.355  22.698   2.103 -0.2046  0.1627  0.0667
    1DPPC   GL118951   0.337  22.434   2.505 -0.0022 -0.0422 -0.1908
    1DPPC   GL218952   0.636  22.472   2.693 -0.0006 -0.0160 -0.0483
    1DPPC   C1A18953   0.122  22.442   2.945  0.2288 -0.0387  0.1393
    1DPPC   C2A18954   0.031  22.436   3.450  0.1593  0.1886  0.1692
    1DPPC   C3A18955  -0.073  22.020   3.640  0.2553  0.2742  0.2335
    1DPPC   C4A18956  -0.414  21.757   3.804 -0.1450  0.2945  0.0465
    1DPPC   C1B18957   0.828  22.395   3.110  0.1255  0.0597  0.3295
    1DPPC   C2B18958   1.148  22.321   3.450  0.0576  0.0762  0.4116
    1DPPC   C3B18959   1.017  22.325   3.866  0.1178 -0.1029  0.3439
    1DPPC   C4B18960   1.095  22.242   4.224  0.0828  0.1390  0.5362
    1DPPC   NC318961  12.234  16.128   2.275 -0.1232 -0.0070  0.2334
    1DPPC   PO418962  11.974  15.819   2.376 -0.1005  0.0651  0.0029
    1DPPC   GL118963  12.220  15.950   2.755  0.1529  0.0257  0.2157
    1DPPC   GL218964  12.435  15.676   2.846  0.4895 -0.1048  0.0605
    1DPPC   C1A18965  12.568  16.173   3.002 -0.0295 -0.0445  0.3436
    1DPPC   C2A18966  12.807  16.331   3.297 -0.1211 -0.0505  0.1474
    1DPPC   C3A18967  12.835  16.419   3.671  0.0986 -0.1125 -0.3120
    1DPPC   C4A18968  12.796  16.276   4.136  0.2675 -0.0364  0.0113
    1DPPC   C1B18969  12.540  15.693   3.282 -0.0378  0.0062  0.2400
    1DPPC   C2B18970  12.728  15.911   3.554  0.1605  0.0138  0.0150
    1DPPC   C3B18971  12.823  15.761   3.948 -0.2272 -0.2048  0.2185
    1DPPC   C4B18972  12.957  15.891   4.380  0.0056 -0.3755  0.1132
    1DPPC   NC318973  13.020  17.751   2.006 -0.2094  0.0717 -0.0767
    1DPPC   PO418974  13.301  17.883   2.352 -0.2288  0.1736 -0.1769
    1DPPC   GL118975  13.529  18.024   2.731 -0.0635  0.1179  0.1302
    1DPPC   GL218976  13.319  17.883   2.912 -0.0585 -0.2467  0.0275
    1DPPC   C1A18977  13.838  18.200   2.882 -0.1618  0.2106 -0.0993
    1DPPC   C2A18978  13.871  18.102   3.280  0.1944 -0.0930  0.2773
    1DPPC   C3A18979  13.912  18.069   3.636  0.3374 -0.1018  0.3880
    1DPPC   C4A18980  13.669  18.038   3.958  0.1908  0.0998  0.1238
    1DPPC   C1B18981  13.459  17.834   3.209 -0.0906 -0.2398  0.1036
    1DPPC   C2B18982  13.471  17.733   3.580 -0.0136 -0.2093  0.0384
    1DPPC   C3B18983  13.354  17.704   3.998 -0.0723 -0.2983 -0.2066
    1DPPC   C4B18984  13.291  17.572   4.430 -0.2006 -0.0131 -0.1527
    1DPPC   NC318985  11.494  15.975   2.474 -0.2022 -0.0198  0.1470
    1DPPC   PO418986  11.124  15.736   2.466  0.2245  0.2166 -0.0075
    1DPPC   GL118987  11.290  15.657   2.937 -0.1815 -0.1078  0.0967
    1DPPC   GL218988  11.570  15.496   3.162  0.1010  0.0379 -0.2325
    1DPPC   C1A18989  11.099  15.643   3.289  0.2612 -0.2118  0.2700
    1DPPC   C2A18990  10.969  15.666   3.687 -0.0415 -0.0232 -0.2448
    1DPPC   C3A18991  10.958  15.684   4.193 -0.0960  0.0190  0.4688
    1DPPC   C4A18992  11.046  15.833   4.624 -0.1326 -0.0587  0.1294
    1DPPC   C1B18993  11.480  15.451   3.594 -0.0178 -0.1175  0.0435
    1DPPC   C2B18994  11.405  15.496   4.005  0.0789  0.2311  0.0734
    1DPPC   C3B18995  11.439  15.592   4.488  0.2256  0.1342  0.1707
    1DPPC   C4B18996  11.885  15.509   4.738  0.1624 -0.0340 -0.2095
    1DPPC   NC318997  18.685  18.586   2.234 -0.2042 -0.2384  0.2178
    1DPPC   PO418998  18.417  18.906   2.180 -0.1303 -0.1961 -0.1035
    1DPPC   GL118999  18.521  19.118   2.600 -0.1948  0.0874  0.3274
    1DPPC   GL219000  18.738  19.334   2.669 -0.0375 -0.1882 -0.2534
    1DPPC   C1A19001  18.335  19.149   2.963 -0.0321 -0.0980 -0.1525
    1DPPC   C2A19002  18.465  19.147   3.427  0.4837 -0.1533  0.2281
    1DPPC   C3A19003  18.505  19.316   3.745 -0.2820 -0.1436  0.3194
    1DPPC   C4A19004  18.412  19.362   4.219 -0.0405  0.0979 -0.2927
    1DPPC   C1B19005  18.747  19.423   3.076  0.2365 -0.2024 -0.0200
    1DPPC   C2B19006  18.782  19.680   3.487 -0.0280  0.1738  0.0290
    1DPPC   C3B19007  18.751  19.634   4.033  0.3588  0.0770 -0.1083
    1DPPC   C4B19008  18.661  19.875   4.335 -0.0327  0.0232 -0.2535
    1DPPC   NC319009  12.375  10.118   3.354 -0.3148 -0.0372 -0.2245
    1DPPC   PO419010  11.830  10.170   3.314  0.1627 -0.3669 -0.3459
    1DPPC   GL119011  11.815   9.986   3.763 -0.0423  0.1841  0.0951
    1DPPC   GL219012  12.047   9.969   4.070 -0.2820  0.2705 -0.0949
    1DPPC   C1A19013  11.529  10.003   4.022  0.3490 -0.1612  0.1259
    1DPPC   C2A19014  11.612   9.997   4.382 -0.0190 -0.0315 -0.1428
    1DPPC   C3A19015  11.625   9.960   4.853 -0.0035 -0.1355  0.1166
    1DPPC   C4A19016  11.666   9.954   5.280  0.1544 -0.1799 -0.0289
    1DPPC   C1B19017  12.111   9.987   4.459  0.1254  0.0788 -0.2849
    1DPPC   C2B19018  12.173   9.977   4.905  0.0079 -0.4714  0.0285
    1DPPC   C3B19019  12.169   9.776   5.255 -0.2483 -0.0273 -0.1080
    1DPPC   C4B19020  11.967   9.642   5.554 -0.1224  0.0058  0.1675
    1DPPC   NC319021   9.365  10.185   3.810 -0.2293 -0.0384  0.2795
    1DPPC   PO419022   9.284  10.333   3.422 -0.1359 -0.1173 -0.0636
    1DPPC   GL119023   9.586  10.663   3.761  0.1562 -0.0284  0.1413
    1DPPC   GL219024   9.792  10.817   3.561  0.2357 -0.0874 -0.0078
    1DPPC   C1A19025   9.737  10.584   4.166  0.0584  0.1683 -0.0215
    1DPPC   C2A19026   9.829  10.644   4.619  0.1576 -0.3567 -0.0242
    1DPPC   C3A19027   9.823  10.682   5.040 -0.2349 -0.1269 -0.0409
    1DPPC   C4A19028   9.914  10.788   5.417  0.2340 -0.3450 -0.2119
    1DPPC   C1B19029   9.863  11.028   3.968  0.0532 -0.0666 -0.0707
    1DPPC   C2B19030   9.878  11.049   4.400  0.1691 -0.2816  0.1868
    1DPPC   C3B19031  10.050  11.040   4.790  0.0215  0.0798  0.2011
    1DPPC   C4B19032  10.025  11.206   5.143 -0.1099 -0.0146 -0.0981
    1DPPC   NC319033  26.495  13.710   1.608 -0.0134 -0.0244 -0.1875
    1DPPC   PO419034  26.343  13.982   1.967 -0.1501 -0.1723  0.1942
    1DPPC   GL119035  26.229  13.936   2.425 -0.0388  0.1038  0.0036
    1DPPC   GL219036  25.944  13.905   2.650  0.2481 -0.1010  0.1420
    1DPPC   C1A19037  26.390  14.110   2.693  0.1849  0.2272  0.0166
    1DPPC   C2A19038  26.503  14.179   3.114 -0.0722 -0.1850  0.5356
    1DPPC   C3A19039  26.497  14.520   3.458  0.0443 -0.3297 -0.1521
    1DPPC   C4A19040  26.502  15.070   3.636 -0.0138  0.1562 -0.0275
    1DPPC   C1B19041  25.604  14.052   2.908  0.1688 -0.0032 -0.1103
    1DPPC   C2B19042  25.473  14.098   3.394 -0.1855  0.0029  0.0551
    1DPPC   C3B19043  25.305  14.289   3.662 -0.0302  0.2846  0.1447
    1DPPC   C4B19044  25.202  14.672   3.839 -0.2010 -0.0877 -0.0186
    1DPPC   NC319045  19.165  16.766   2.260 -0.2587 -0.2929 -0.1146
    1DPPC   PO419046  19.341  16.565   1.902 -0.2479 -0.3412 -0.2499
    1DPPC   GL119047  19.343  16.332   2.264 -0.0491  0.0750 -0.0918
    1DPPC   GL219048  18.999  16.340   2.444 -0.0391 -0.0910  0.1872
    1DPPC   C1A19049  19.392  16.131   2.599 -0.2596  0.3781 -0.4922
    1DPPC   C2A19050  19.260  15.978   2.957 -0.1605  0.0830  0.1767
    1DPPC   C3A19051  19.250  15.925   3.348  0.1436 -0.2526  0.0376
    1DPPC   C4A19052  19.242  16.024   3.774  0.2252 -0.1599  0.2243
    1DPPC   C1B19053  19.006  16.373   2.821  0.1628 -0.2298  0.0453
    1DPPC   C2B19054  19.026  16.453   3.193  0.4131  0.0508 -0.1421
    1DPPC   C3B19055  19.011  16.427   3.613  0.2003  0.0710  0.0135
    1DPPC   C4B19056  19.032  16.394   4.049  0.0173  0.2891  0.0249
    1DPPC   NC319057  10.049  19.879   2.122  0.1458  0.1848 -0.0318
    1DPPC   PO419058   9.978  19.496   2.292 -0.0234 -0.0376  0.0638
    1DPPC   GL119059   9.983  19.355   2.749  0.3063  0.0379  0.2868
    1DPPC   GL219060  10.174  19.027   2.662  0.0458  0.2696 -0.1131
    1DPPC   C1A19061   9.833  19.256   3.206  0.0481 -0.3816  0.1142
    1DPPC   C2A19062   9.757  19.119   3.622 -0.1272  0.1854 -0.0646
    1DPPC   C3A19063   9.811  19.268   4.040  0.2398 -0.1512 -0.4399
    1DPPC   C4A19064   9.688  19.038   4.376 -0.1497  0.1149 -0.3096
    1DPPC   C1B19065  10.312  18.780   2.975  0.1034  0.2493  0.0329
    1DPPC   C2B19066  10.575  18.756   3.305  0.1393  0.1007  0.1888
    1DPPC   C3B19067  10.567  18.602   3.780  0.0205 -0.3835 -0.2402
    1DPPC   C4B19068  10.645  18.422   4.156  0.1430  0.2390 -0.0952
    1DPPC   NC319069  17.717  16.890   2.069  0.0599 -0.0790  0.1002
    1DPPC   PO419070  18.027  16.510   2.310 -0.1915  0.1531 -0.0105
    1DPPC   GL119071  17.962  16.593   2.662 -0.2626 -0.3425  0.0270
    1DPPC   GL219072  17.699  16.929   2.567  0.0653  0.2744  0.0320
    1DPPC   C1A19073  17.944  16.533   3.075  0.1126  0.1323 -0.2311
    1DPPC   C2A19074  18.063  16.514   3.559  0.1870 -0.1842 -0.1329
    1DPPC   C3A19075  18.058  16.442   3.954  0.0579  0.0467 -0.0588
    1DPPC   C4A19076  18.409  16.532   4.200 -0.0625 -0.0928 -0.1155
    1DPPC   C1B19077  17.655  16.883   2.965  0.2588  0.0138 -0.0119
    1DPPC   C2B19078  17.650  16.834   3.401 -0.0715 -0.0196  0.0262
    1DPPC   C3B19079  17.684  16.795   3.864 -0.0620  0.0989 -0.1577
    1DPPC   C4B19080  17.675  16.747   4.283  0.0117 -0.1082 -0.0492
    1DPPC   NC319081   9.132  11.738   3.301 -0.1864 -0.1547 -0.0197
    1DPPC   PO419082   8.738  11.513   3.308 -0.2362  0.1231 -0.0146
    1DPPC   GL119083   8.617  11.580   3.759 -0.1406  0.2398 -0.1485
    1DPPC   GL219084   8.555  11.967   3.871 -0.0347 -0.0746 -0.0551
    1DPPC   C1A19085   8.738  11.682   4.229  0.0109  0.0559 -0.3687
    1DPPC   C2A19086   8.840  11.780   4.661  0.1393  0.1605  0.1980
    1DPPC   C3A19087   8.919  12.153   4.799  0.1499 -0.1416  0.2263
    1DPPC   C4A19088   9.176  12.419   4.636 -0.2411  0.2023 -0.0483
    1DPPC   C1B19089   8.391  12.147   4.190  0.0824  0.0174 -0.2579
    1DPPC   C2B19090   8.419  12.234   4.582 -0.1097 -0.3241  0.0806
    1DPPC   C3B19091   8.265  12.616   4.851 -0.2168  0.1897 -0.2882
    1DPPC   C4B19092   8.057  13.045   4.810  0.1536 -0.4036  0.4183
    1DPPC   NC319093  20.010   9.655   1.871 -0.1439  0.0741 -0.4786
    1DPPC   PO419094  20.267   9.945   2.150  0.0377  0.0834 -0.2773
    1DPPC   GL119095  20.463   9.916   2.546 -0.2638  0.0659 -0.2384
    1DPPC   GL219096  20.440  10.236   2.704  0.1431  0.0513 -0.0443
    1DPPC   C1A19097  20.644   9.795   2.891 -0.1382  0.3146 -0.3251
    1DPPC   C2A19098  20.371   9.595   3.037  0.0006 -0.1258  0.2271
    1DPPC   C3A19099  20.015   9.726   3.298 -0.0749  0.1123  0.0325
    1DPPC   C4A19100  19.747   9.712   3.650 -0.3695 -0.0860 -0.4837
    1DPPC   C1B19101  20.558  10.303   3.078 -0.1216  0.1269  0.3267
    1DPPC   C2B19102  20.913  10.409   3.325  0.0551 -0.0216  0.4672
    1DPPC   C3B19103  20.905  10.367   3.712 -0.3107 -0.2391 -0.1353
    1DPPC   C4B19104  20.913   9.909   3.906  0.2944 -0.0950  0.1568
    1DPPC   NC319105  19.961  19.218   2.220 -0.0068 -0.0355 -0.1988
    1DPPC   PO419106  20.031  18.826   2.146  0.0575  0.1175 -0.1825
    1DPPC   GL119107  19.973  18.754   2.577 -0.1210  0.3263  0.3472
    1DPPC   GL219108  19.695  18.854   2.650  0.2352  0.1513  0.2392
    1DPPC   C1A19109  20.088  18.550   2.908  0.0868 -0.0708 -0.1164
    1DPPC   C2A19110  20.058  18.459   3.279 -0.0088  0.1546 -0.1230
    1DPPC   C3A19111  20.037  18.583   3.675  0.0667  0.3522  0.3494
    1DPPC   C4A19112  20.158  18.842   3.904 -0.2224  0.1934  0.2420
    1DPPC   C1B19113  19.629  18.826   3.024 -0.0417  0.0334  0.3238
    1DPPC   C2B19114  19.609  18.745   3.414  0.2683 -0.1456  0.2416
    1DPPC   C3B19115  19.633  18.747   3.896 -0.1897 -0.0366 -0.1618
    1DPPC   C4B19116  19.467  18.799   4.359 -0.0079 -0.3637  0.0165
    1DPPC   NC319117   9.425   7.704   3.308  0.0572 -0.2293 -0.1809
    1DPPC   PO419118   9.393   8.162   3.605  0.0807  0.1485 -0.1540
    1DPPC   GL119119   9.469   8.308   4.022  0.0740 -0.0708 -0.1473
    1DPPC   GL219120   9.647   8.555   4.033  0.0124  0.2082 -0.1409
    1DPPC   C1A19121   9.415   8.049   4.415  0.0963 -0.0782 -0.3914
    1DPPC   C2A19122   9.567   7.860   4.774  0.2437  0.3935 -0.1512
    1DPPC   C3A19123   9.837   7.783   5.182  0.3530 -0.2557  0.0380
    1DPPC   C4A19124   9.871   7.794   5.637 -0.0534 -0.1950  0.3251
    1DPPC   C1B19125   9.601   8.493   4.471 -0.1926  0.0808  0.4202
    1DPPC   C2B19126   9.573   8.491   4.909  0.0159  0.0121  0.2564
    1DPPC   C3B19127   9.488   8.557   5.319  0.2468  0.1489  0.1322
    1DPPC   C4B19128   9.554   8.819   5.743 -0.0673 -0.3420  0.2857
    1DPPC   NC319129  23.470  15.705   1.341 -0.0082  0.2545  0.1136
    1DPPC   PO419130  23.243  15.402   1.613  0.0155  0.4539  0.1661
    1DPPC   GL119131  23.242  15.399   2.030 -0.3296 -0.0244 -0.0107
    1DPPC   GL219132  22.939  15.502   1.983 -0.0019  0.2483 -0.0563
    1DPPC   C1A19133  23.152  15.593   2.433 -0.0160 -0.0699 -0.3044
    1DPPC   C2A19134  23.271  15.778   2.708  0.2201 -0.0441 -0.1159
    1DPPC   C3A19135  23.269  15.708   3.115  0.3682  0.0251  0.1184
    1DPPC   C4A19136  23.587  15.548   3.451  0.1458  0.0652 -0.0352
    1DPPC   C1B19137  22.875  15.139   2.308 -0.0924 -0.0750  0.0779
    1DPPC   C2B19138  22.507  15.017   2.646 -0.1940 -0.0229  0.0789
    1DPPC   C3B19139  22.467  14.675   2.837 -0.1998 -0.0814 -0.3602
    1DPPC   C4B19140  22.286  14.520   3.357 -0.2931 -0.0551  0.2346
    1DPPC   NC319141  16.514  20.212   2.514 -0.1077  0.3884  0.3332
    1DPPC   PO419142  16.329  19.812   2.612  0.1877  0.0575  0.2080
    1DPPC   GL119143  16.570  19.819   2.939 -0.2983 -0.0188  0.1112
    1DPPC   GL219144  16.754  20.163   3.065  0.3785 -0.3076  0.2121
    1DPPC   C1A19145  16.553  19.761   3.330  0.3774  0.0847  0.0638
    1DPPC   C2A19146  16.505  19.785   3.780  0.1121 -0.0400 -0.2491
    1DPPC   C3A19147  16.356  19.974   4.229  0.0524  0.0272  0.3064
    1DPPC   C4A19148  16.425  19.939   4.743 -0.1300  0.1456 -0.0865
    1DPPC   C1B19149  16.873  20.174   3.523  0.0245 -0.0406  0.0076
    1DPPC   C2B19150  16.778  20.164   3.948 -0.1820 -0.3998  0.1138
    1DPPC   C3B19151  16.805  20.212   4.392 -0.1573  0.1486 -0.0228
    1DPPC   C4B19152  16.762  20.440   4.732  0.1562 -0.4627 -0.0331
    1DPPC   NC319153  15.318  20.953   2.771  0.2523 -0.0518  0.0365
    1DPPC   PO419154  14.980  20.622   2.620  0.2221  0.2706 -0.1407
    1DPPC   GL119155  15.145  20.550   3.125 -0.1258 -0.2762 -0.3117
    1DPPC   GL219156  15.418  20.665   3.286 -0.2442 -0.2312  0.0950
    1DPPC   C1A19157  15.049  20.468   3.556 -0.2855  0.2225  0.3346
    1DPPC   C2A19158  15.130  20.395   3.951  0.0391 -0.1828  0.0623
    1DPPC   C3A19159  15.176  20.384   4.323  0.2279  0.2797 -0.1855
    1DPPC   C4A19160  15.264  20.718   4.668 -0.1160 -0.0770  0.1731
    1DPPC   C1B19161  15.468  20.839   3.679  0.2092  0.0066  0.3471
    1DPPC   C2B19162  15.420  20.805   4.127  0.1350 -0.1225  0.2477
    1DPPC   C3B19163  15.649  20.985   4.447 -0.2329  0.1537 -0.1519
    1DPPC   C4B19164  16.000  20.787   4.610  0.1695  0.3973  0.1439
    1DPPC   NC319165  11.197  16.927   2.213  0.0718  0.1757 -0.3706
    1DPPC   PO419166  11.486  17.244   2.331 -0.0593  0.0604  0.0906
    1DPPC   GL119167  11.639  17.218   2.691  0.1080  0.1485 -0.0973
    1DPPC   GL219168  11.910  17.207   2.757 -0.2120  0.1422 -0.0546
    1DPPC   C1A19169  11.613  17.418   3.063  0.1295 -0.2226  0.1946
    1DPPC   C2A19170  11.532  17.447   3.514  0.0326  0.3747 -0.0651
    1DPPC   C3A19171  11.557  17.470   3.937  0.0948 -0.0714 -0.1583
    1DPPC   C4A19172  11.475  17.622   4.265 -0.2583 -0.1049 -0.0264
    1DPPC   C1B19173  12.107  17.120   3.138  0.0025 -0.1140 -0.1326
    1DPPC   C2B19174  12.059  17.312   3.372  0.1875  0.2876  0.4140
    1DPPC   C3B19175  12.084  17.393   3.756  0.0665  0.1466 -0.0589
    1DPPC   C4B19176  12.051  17.409   4.227  0.2392 -0.0895 -0.0453
    1DPPC   NC319177  28.501  25.281   2.423  0.2875  0.0979  0.0171
    1DPPC   PO419178  28.825  25.335   2.690 -0.0069 -0.0072 -0.1533
    1DPPC   GL119179  28.551  25.176   3.011 -0.1372 -0.0458  0.1502
    1DPPC   GL219180  28.537  25.385   3.307  0.3264  0.0554  0.1545
    1DPPC   C1A19181  28.448  24.820   3.404 -0.0304  0.0596 -0.1257
    1DPPC   C2A19182  28.440  24.542   3.656  0.1762  0.1212  0.1626
    1DPPC   C3A19183  28.198  24.204   3.805 -0.0331 -0.0870  0.2906
    1DPPC   C4A19184  27.898  23.954   4.066  0.2617  0.0833  0.1225
    1DPPC   C1B19185  28.869  25.219   3.443 -0.0951 -0.1581 -0.2329
    1DPPC   C2B19186  29.086  25.286   3.791 -0.2352 -0.0228  0.1850
    1DPPC   C3B19187  29.175  25.054   4.104  0.2506  0.0400  0.0455
    1DPPC   C4B19188  29.227  24.561   4.181  0.1091  0.0357 -0.1652
    1DPPC   NC319189  21.615  18.213   2.457  0.0313 -0.1233 -0.1486
    1DPPC   PO419190  21.422  17.747   2.335  0.1562 -0.1221 -0.0625
    1DPPC   GL119191  21.327  17.628   2.725  0.1873  0.1996 -0.3273
    1DPPC   GL219192  21.289  17.219   2.669 -0.0469  0.2126  0.1731
    1DPPC   C1A19193  21.491  17.679   3.195  0.4015 -0.1670  0.2855
    1DPPC   C2A19194  21.666  17.677   3.556  0.2232 -0.0458  0.0741
    1DPPC   C3A19195  21.899  17.785   3.921 -0.0040 -0.0149 -0.1094
    1DPPC   C4A19196  22.174  17.666   4.108  0.0412  0.1614  0.0255
    1DPPC   C1B19197  21.379  17.224   3.100 -0.1325 -0.0486 -0.0627
    1DPPC   C2B19198  21.494  17.197   3.481  0.2449 -0.0006 -0.0694
    1DPPC   C3B19199  21.590  17.369   3.909  0.3816  0.1068  0.0542
    1DPPC   C4B19200  21.820  17.372   4.358 -0.0990 -0.1080 -0.1655
    1DPPC   NC319201  13.909  12.568   2.566  0.1554 -0.0216 -0.0578
    1DPPC   PO419202  13.817  12.184   2.872  0.1285 -0.2971  0.0399
    1DPPC   GL119203  14.174  12.220   3.136 -0.0778  0.1025 -0.0426
    1DPPC   GL219204  14.289  12.445   3.035  0.0501  0.0769  0.1345
    1DPPC   C1A19205  14.225  12.365   3.573  0.1168  0.0440 -0.1760
    1DPPC   C2A19206  14.289  12.550   3.906 -0.0936  0.2777 -0.1983
    1DPPC   C3A19207  14.321  12.591   4.346  0.0350 -0.0248 -0.2942
    1DPPC   C4A19208  14.225  12.465   4.705  0.1598 -0.0247  0.1075
    1DPPC   C1B19209  14.050  12.765   3.293  0.0265  0.0585  0.5194
    1DPPC   C2B19210  14.049  12.990   3.649  0.1243  0.2169  0.2020
    1DPPC   C3B19211  14.090  13.009   4.096  0.0731  0.1896  0.0776
    1DPPC   C4B19212  14.127  13.071   4.523  0.1897 -0.0357  0.2569
    1DPPC   NC319213  17.778  17.756   2.137 -0.1470 -0.0154 -0.2265
    1DPPC   PO419214  17.432  17.438   1.932  0.1095  0.1341  0.1036
    1DPPC   GL119215  17.237  17.280   2.388 -0.2467 -0.1169  0.2776
    1DPPC   GL219216  17.006  17.466   2.622 -0.1050 -0.2600 -0.2008
    1DPPC   C1A19217  17.226  17.041   2.868  0.3862  0.0338  0.2463
    1DPPC   C2A19218  17.218  16.982   3.303  0.1572 -0.1491  0.0263
    1DPPC   C3A19219  17.233  16.936   3.711 -0.1141 -0.2342 -0.0816
    1DPPC   C4A19220  17.186  16.952   4.228 -0.1834 -0.1644  0.1113
    1DPPC   C1B19221  17.089  17.536   3.005  0.0333  0.0030  0.1555
    1DPPC   C2B19222  17.148  17.466   3.421  0.1218  0.0473 -0.1125
    1DPPC   C3B19223  17.303  17.457   3.855  0.0137 -0.1986  0.1206
    1DPPC   C4B19224  17.327  17.528   4.244 -0.1141 -0.2952 -0.1192
    1DPPC   NC319225   9.788  13.807   2.646 -0.4406 -0.3351  0.1079
    1DPPC   PO419226   9.854  13.578   2.937  0.1378  0.3357 -0.0466
    1DPPC   GL119227   9.977  13.639   3.306  0.1018  0.0387 -0.0264
    1DPPC   GL219228  10.236  13.729   3.264  0.0215  0.1736 -0.0650
    1DPPC   C1A19229   9.850  13.522   3.738  0.1193 -0.0001  0.3787
    1DPPC   C2A19230   9.608  13.538   4.152 -0.3097 -0.2962 -0.1023
    1DPPC   C3A19231   9.359  13.397   4.431 -0.1034 -0.0732  0.0035
    1DPPC   C4A19232   9.051  13.032   4.650 -0.1846  0.0879 -0.0222
    1DPPC   C1B19233  10.267  13.771   3.794  0.0362 -0.0150 -0.3785
    1DPPC   C2B19234  10.228  13.912   4.178  0.1406 -0.2861 -0.0639
    1DPPC   C3B19235  10.141  13.887   4.688  0.1213  0.0335 -0.0088
    1DPPC   C4B19236  10.498  13.955   4.902  0.0219 -0.0360 -0.0104
    1DPPC   NC319237  16.586  15.617   2.142  0.0114 -0.1489 -0.0601
    1DPPC   PO419238  16.595  16.006   2.097  0.2075  0.2771 -0.1184
    1DPPC   GL119239  16.434  15.943   2.489 -0.1159 -0.2310 -0.1259
    1DPPC   GL219240  16.154  15.737   2.459 -0.1025 -0.1534 -0.0630
    1DPPC   C1A19241  16.427  15.825   2.904 -0.1508  0.1480 -0.0827
    1DPPC   C2A19242  16.500  15.849   3.397  0.3806 -0.0372 -0.3901
    1DPPC   C3A19243  16.471  15.877   3.862  0.1413  0.0558  0.0195
    1DPPC   C4A19244  16.277  15.982   4.164  0.2219 -0.0694 -0.1552
    1DPPC   C1B19245  15.998  15.574   2.866 -0.1979  0.1128 -0.0715
    1DPPC   C2B19246  15.996  15.618   3.241 -0.1729  0.1540  0.2252
    1DPPC   C3B19247  16.119  15.594   3.660 -0.0351  0.3893 -0.0725
    1DPPC   C4B19248  16.307  15.452   4.109  0.0010 -0.0573 -0.0812
    1DPPC   NC319249  12.540   9.449   2.916 -0.4298 -0.0050 -0.3106
    1DPPC   PO419250  12.614   9.647   3.306  0.2207 -0.0113  0.1378
    1DPPC   GL119251  12.588   9.867   3.759 -0.0547  0.0071 -0.1095
    1DPPC   GL219252  12.630  10.190   3.791 -0.0663 -0.2286  0.2388
    1DPPC   C1A19253  12.561  10.020   4.222  0.0988  0.1786 -0.0381
    1DPPC   C2A19254  12.582  10.138   4.631 -0.2909  0.0237 -0.0578
    1DPPC   C3A19255  12.683  10.256   5.041 -0.1544  0.0897  0.0461
    1DPPC   C4A19256  12.572  10.089   5.409  0.0857 -0.2716 -0.0623
    1DPPC   C1B19257  12.861  10.373   4.170 -0.1464 -0.0229 -0.1174
    1DPPC   C2B19258  13.065  10.397   4.547  0.2453  0.1397  0.1014
    1DPPC   C3B19259  13.136  10.506   4.884  0.0751 -0.0809  0.0064
    1DPPC   C4B19260  13.147  10.601   5.313 -0.0328  0.1260  0.0131
    1DPPC   NC319261  12.817  11.478   2.660  0.5107 -0.2299  0.2229
    1DPPC   PO419262  12.446  11.788   2.521 -0.4762  0.2529  0.1915
    1DPPC   GL119263  12.598  11.849   2.983  0.0429  0.0392  0.3688
    1DPPC   GL219264  12.927  11.772   3.076  0.0113  0.1217 -0.0775
    1DPPC   C1A19265  12.394  12.051   3.295 -0.0003  0.1978  0.1584
    1DPPC   C2A19266  12.529  12.274   3.570 -0.0019  0.1143 -0.1434
    1DPPC   C3A19267  12.583  12.271   4.032  0.1026 -0.1290  0.0010
    1DPPC   C4A19268  12.521  12.254   4.436  0.2221  0.1416 -0.0388
    1DPPC   C1B19269  12.936  11.770   3.548 -0.1277 -0.0684  0.1207
    1DPPC   C2B19270  12.879  11.864   3.944 -0.0020 -0.1132  0.4005
    1DPPC   C3B19271  12.873  11.984   4.392 -0.5006  0.3220 -0.2130
    1DPPC   C4B19272  12.831  12.024   4.846 -0.1459  0.0230  0.0819
    1DPPC   NC319273  25.401  19.758   1.992  0.0153  0.1471 -0.0265
    1DPPC   PO419274  25.126  19.729   2.327 -0.2993  0.0929 -0.0909
    1DPPC   GL119275  24.828  19.459   2.538  0.1736 -0.2485 -0.2926
    1DPPC   GL219276  24.948  19.438   2.826 -0.0281 -0.2466 -0.3391
    1DPPC   C1A19277  24.405  19.433   2.799  0.0220 -0.0180  0.2740
    1DPPC   C2A19278  24.250  19.409   3.238  0.0673 -0.4861  0.1161
    1DPPC   C3A19279  24.270  19.357   3.696  0.2881 -0.0824 -0.2227
    1DPPC   C4A19280  24.195  19.497   4.066 -0.2110 -0.3885  0.0613
    1DPPC   C1B19281  24.702  19.673   3.184 -0.4045 -0.2686  0.1116
    1DPPC   C2B19282  24.526  19.759   3.521  0.3942  0.2274 -0.1316
    1DPPC   C3B19283  24.663  19.813   3.869 -0.0534  0.3162  0.0436
    1DPPC   C4B19284  24.665  19.820   4.245 -0.0823 -0.5210  0.0320
    1DPPC   NC319285  12.463   6.770   4.030 -0.1714  0.0532  0.0169
    1DPPC   PO419286  12.758   7.166   4.033  0.0373 -0.0060  0.1277
    1DPPC   GL119287  12.779   7.496   4.332 -0.1515 -0.2245  0.0344
    1DPPC   GL219288  12.494   7.556   4.474 -0.0031  0.0398 -0.4037
    1DPPC   C1A19289  12.822   7.476   4.796  0.1554  0.2869  0.2325
    1DPPC   C2A19290  12.930   7.458   5.219  0.2056  0.0976  0.2164
    1DPPC   C3A19291  13.001   7.267   5.544  0.0334 -0.0195 -0.0453
    1DPPC   C4A19292  13.351   7.191   5.872  0.1185  0.3600  0.1308
    1DPPC   C1B19293  12.412   7.264   4.917  0.1537 -0.2748  0.1122
    1DPPC   C2B19294  12.562   7.004   5.176  0.0711  0.2981  0.1975
    1DPPC   C3B19295  12.681   6.870   5.593 -0.0601  0.1338 -0.4288
    1DPPC   C4B19296  12.626   6.675   5.991  0.0664  0.0479 -0.0417
    1DPPC   NC319297   8.794  27.478   3.174 -0.0497 -0.0823  0.1848
    1DPPC   PO419298   8.329  27.299   3.202 -0.2610  0.3203  0.0667
    1DPPC   GL119299   8.291  27.088   3.691 -0.1893  0.0076  0.1858
    1DPPC   GL219300   7.967  27.079   3.767  0.1103 -0.0236 -0.0398
    1DPPC   C1A19301   8.258  26.887   4.114  0.1212 -0.1868  0.3550
    1DPPC   C2A19302   8.115  26.755   4.528 -0.0344 -0.1117 -0.1092
    1DPPC   C3A19303   7.826  26.520   4.790  0.1027  0.1867  0.0487
    1DPPC   C4A19304   7.873  26.265   5.137  0.2872  0.3604 -0.0309
    1DPPC   C1B19305   7.737  26.807   4.168 -0.0795  0.1921  0.1555
    1DPPC   C2B19306   7.507  26.443   4.187  0.1789 -0.0848 -0.0309
    1DPPC   C3B19307   7.136  26.388   4.223 -0.3371  0.1152 -0.2582
    1DPPC   C4B19308   6.855  26.189   4.494 -0.0787 -0.1985  0.2765
    1DPPC   NC319309  23.168  17.081   1.302  0.0094 -0.0071 -0.2918
    1DPPC   PO419310  22.914  16.881   1.690 -0.0334 -0.1083 -0.1124
    1DPPC   GL119311  23.112  17.071   2.098 -0.2706 -0.1466  0.3792
    1DPPC   GL219312  23.356  16.891   2.037 -0.5124 -0.0258 -0.3912
    1DPPC   C1A19313  23.268  17.240   2.445 -0.0736 -0.3346  0.0400
    1DPPC   C2A19314  23.310  17.247   2.879  0.1335  0.1001 -0.1565
    1DPPC   C3A19315  23.395  16.998   3.322 -0.0577 -0.2179 -0.0085
    1DPPC   C4A19316  23.340  16.772   3.675  0.0599 -0.1516  0.0599
    1DPPC   C1B19317  23.417  16.776   2.439  0.3851  0.2080  0.1626
    1DPPC   C2B19318  23.476  16.802   2.865  0.0481  0.0312  0.1660
    1DPPC   C3B19319  23.555  16.590   3.175 -0.0205  0.2873 -0.1081
    1DPPC   C4B19320  23.724  16.534   3.523 -0.4375  0.2350 -0.0730
    1DPPC   NC319321  11.377  26.921   2.234 -0.1276  0.2918 -0.0334
    1DPPC   PO419322  11.238  26.737   2.708  0.1418  0.0052  0.0520
    1DPPC   GL119323  11.162  26.432   3.068  0.0008 -0.0995 -0.1220
    1DPPC   GL219324  11.378  26.627   3.266 -0.0704  0.2038 -0.0906
    1DPPC   C1A19325  10.887  26.222   3.413 -0.0199  0.3279 -0.2714
    1DPPC   C2A19326  10.578  25.956   3.569  0.0541 -0.2231  0.2442
    1DPPC   C3A19327  10.614  25.482   3.641  0.1788  0.2232 -0.0037
    1DPPC   C4A19328  10.795  25.180   3.859  0.0613  0.0355  0.2412
    1DPPC   C1B19329  11.279  26.489   3.658  0.3549  0.4244  0.0723
    1DPPC   C2B19330  11.378  26.701   4.040 -0.1611 -0.0425 -0.2795
    1DPPC   C3B19331  11.586  27.023   4.208  0.1156 -0.0949  0.1640
    1DPPC   C4B19332  11.875  27.197   3.781 -0.1250  0.0947 -0.2179
    1DPPC   NC319333  14.917   7.433   3.436 -0.1004  0.1129  0.1463
    1DPPC   PO419334  14.593   7.217   3.684 -0.1201  0.0230  0.2255
    1DPPC   GL119335  14.493   7.326   4.200  0.2857 -0.1836 -0.0208
    1DPPC   GL219336  14.164   7.324   4.257 -0.0685 -0.1336  0.0120
    1DPPC   C1A19337  14.703   7.404   4.551 -0.1490 -0.1582  0.0819
    1DPPC   C2A19338  14.848   7.655   4.937  0.0405  0.2784  0.0025
    1DPPC   C3A19339  15.091   7.995   5.052 -0.1537 -0.0666 -0.1864
    1DPPC   C4A19340  15.512   8.153   5.028  0.0791  0.2188 -0.0640
    1DPPC   C1B19341  14.224   7.369   4.714 -0.1566 -0.1382  0.1026
    1DPPC   C2B19342  14.515   7.116   5.003 -0.3569  0.0875 -0.0542
    1DPPC   C3B19343  14.629   6.865   5.326  0.0907 -0.3744  0.2158
    1DPPC   C4B19344  14.444   6.458   5.435 -0.1601 -0.2460  0.1312
    1DPPC   NC319345  10.040  14.583   2.330  0.0347  0.3003  0.2645
    1DPPC   PO419346   9.812  14.308   2.459 -0.2035  0.1052  0.1542
    1DPPC   GL119347   9.852  14.221   2.884  0.0396 -0.3252 -0.1005
    1DPPC   GL219348  10.014  14.072   3.049 -0.0645  0.3658  0.0763
    1DPPC   C1A19349   9.764  14.471   3.279  0.2814 -0.2007 -0.1460
    1DPPC   C2A19350   9.708  14.622   3.691 -0.0411  0.1667 -0.0531
    1DPPC   C3A19351   9.588  14.398   4.096  0.2003  0.1501  0.0356
    1DPPC   C4A19352   9.383  14.341   4.414 -0.2864  0.3652  0.2153
    1DPPC   C1B19353   9.934  14.084   3.528  0.0479 -0.1643 -0.1893
    1DPPC   C2B19354   9.812  13.948   3.921 -0.1066 -0.1796 -0.1671
    1DPPC   C3B19355   9.751  13.961   4.365 -0.0360  0.1108 -0.0302
    1DPPC   C4B19356   9.521  13.922   4.753  0.0568 -0.1068  0.0710
    1DPPC   NC319357   8.755  20.509   2.021  0.0570 -0.3566  0.2333
    1DPPC   PO419358   8.698  20.042   2.109 -0.0813  0.1080  0.0370
    1DPPC   GL119359   8.592  20.081   2.491 -0.2168 -0.1712 -0.0940
    1DPPC   GL219360   8.757  19.955   2.649 -0.0870 -0.1650  0.1204
    1DPPC   C1A19361   8.327  20.278   2.952 -0.1769 -0.0040 -0.0657
    1DPPC   C2A19362   8.464  20.537   3.317 -0.1577  0.0562 -0.0547
    1DPPC   C3A19363   8.268  20.323   3.754  0.2216  0.0498  0.1091
    1DPPC   C4A19364   7.988  20.031   3.911 -0.1832  0.1263 -0.1980
    1DPPC   C1B19365   8.466  19.781   2.986  0.1179  0.0855  0.2890
    1DPPC   C2B19366   8.416  19.886   3.473 -0.3368 -0.2029 -0.1272
    1DPPC   C3B19367   8.494  19.807   3.957 -0.0825  0.1425  0.2795
    1DPPC   C4B19368   8.302  19.750   4.286 -0.0694  0.0793  0.1881
    1DPPC   NC319369  15.721  11.274   2.356 -0.1068 -0.0415 -0.0783
    1DPPC   PO419370  15.652  11.673   2.539 -0.2411  0.1873 -0.1638
    1DPPC   GL119371  15.770  11.854   2.963  0.0017  0.1653 -0.2751
    1DPPC   GL219372  15.434  11.844   2.963  0.1226 -0.1669 -0.3099
    1DPPC   C1A19373  15.845  12.143   3.273  0.2392  0.1024 -0.0269
    1DPPC   C2A19374  15.796  12.173   3.675  0.1477  0.1938  0.0079
    1DPPC   C3A19375  15.774  12.285   4.103  0.1063 -0.0974 -0.1890
    1DPPC   C4A19376  15.858  12.507   4.540 -0.3659  0.3635  0.1631
    1DPPC   C1B19377  15.538  11.723   3.339  0.2765 -0.0562 -0.1553
    1DPPC   C2B19378  15.662  11.657   3.790 -0.3082  0.2143  0.5913
    1DPPC   C3B19379  15.794  11.715   4.213  0.0060  0.1843  0.1155
    1DPPC   C4B19380  15.907  11.569   4.583  0.0090  0.2331 -0.1787
    1DPPC   NC319381  10.745  14.526   2.623  0.0535 -0.2639  0.0973
    1DPPC   PO419382  10.904  14.883   2.787  0.1649  0.2465  0.0787
    1DPPC   GL119383  10.638  14.966   3.105 -0.4226  0.2195  0.0023
    1DPPC   GL219384  10.381  15.138   3.000 -0.0798  0.2998 -0.1995
    1DPPC   C1A19385  10.545  14.973   3.511  0.0647 -0.1221  0.0618
    1DPPC   C2A19386  10.473  14.915   3.922 -0.2002  0.0619 -0.1243
    1DPPC   C3A19387  10.417  14.825   4.280  0.1506 -0.3156 -0.4870
    1DPPC   C4A19388  10.177  14.820   4.555 -0.6654 -0.1647  0.2830
    1DPPC   C1B19389  10.104  15.256   3.232  0.1027  0.0408 -0.1674
    1DPPC   C2B19390  10.035  15.632   3.501 -0.0133  0.1673 -0.1343
    1DPPC   C3B19391   9.987  15.603   3.985 -0.0454 -0.3881 -0.2094
    1DPPC   C4B19392   9.975  15.740   4.393 -0.1805  0.4071 -0.2724
    1DPPC   NC319393  12.583  14.246   2.439  0.0996 -0.4175 -0.3067
    1DPPC   PO419394  12.177  14.411   2.686  0.2741 -0.3406  0.1658
    1DPPC   GL119395  12.379  14.711   2.894  0.0950 -0.1437 -0.0122
    1DPPC   GL219396  12.567  14.576   3.059 -0.0905  0.5713  0.0617
    1DPPC   C1A19397  12.171  14.886   3.314 -0.0040 -0.2607 -0.3568
    1DPPC   C2A19398  12.187  15.012   3.761  0.0129 -0.1370  0.0976
    1DPPC   C3A19399  12.309  15.117   4.069 -0.0638  0.2183 -0.1052
    1DPPC   C4A19400  12.304  15.331   4.506  0.0941  0.1252  0.1159
    1DPPC   C1B19401  12.572  14.572   3.456 -0.4420 -0.1750  0.0436
    1DPPC   C2B19402  12.565  14.652   3.953  0.0228 -0.1537  0.1008
    1DPPC   C3B19403  12.606  14.884   4.342 -0.0622 -0.2478 -0.4965
    1DPPC   C4B19404  12.540  14.862   4.827 -0.2209 -0.4820 -0.1695
    1DPPC   NC319405  14.131  13.408   2.612  0.1104 -0.3022  0.1239
    1DPPC   PO419406  14.566  13.282   2.460  0.2219  0.0301  0.0381
    1DPPC   GL119407  14.513  13.286   2.922  0.0284 -0.0555 -0.0725
    1DPPC   GL219408  14.489  12.955   3.056  0.0129  0.4595  0.0662
    1DPPC   C1A19409  14.471  13.367   3.355 -0.0878  0.2835  0.1576
    1DPPC   C2A19410  14.343  13.354   3.765  0.0192  0.0878 -0.0377
    1DPPC   C3A19411  14.383  13.526   4.222 -0.1533 -0.0408  0.1124
    1DPPC   C4A19412  14.324  13.594   4.645 -0.0425 -0.0028 -0.2400
    1DPPC   C1B19413  14.546  12.843   3.374  0.2966  0.0390 -0.3337
    1DPPC   C2B19414  14.626  12.890   3.751  0.2636 -0.1574 -0.0601
    1DPPC   C3B19415  14.650  12.953   4.170 -0.0578  0.2333  0.0458
    1DPPC   C4B19416  14.601  13.143   4.556  0.0709  0.2116  0.1305
    1DPPC   NC319417  17.467  22.413   2.900 -0.0862  0.0691  0.1995
    1DPPC   PO419418  17.182  22.204   2.660 -0.3019  0.0863 -0.0107
    1DPPC   GL119419  17.060  22.010   3.088  0.0450 -0.0928 -0.1712
    1DPPC   GL219420  16.831  21.830   3.228  0.1103 -0.1160  0.1732
    1DPPC   C1A19421  17.241  21.978   3.523  0.0432  0.0385  0.2002
    1DPPC   C2A19422  17.480  22.009   3.938 -0.1554 -0.0892  0.1712
    1DPPC   C3A19423  17.381  21.976   4.383  0.0055  0.0543  0.0817
    1DPPC   C4A19424  17.290  22.428   4.644 -0.1012  0.0350  0.1933
    1DPPC   C1B19425  16.779  21.749   3.656  0.1165  0.0402 -0.0728
    1DPPC   C2B19426  16.470  21.702   3.918 -0.1714 -0.1678  0.0543
    1DPPC   C3B19427  16.380  21.649   4.344 -0.0385 -0.0551 -0.1776
    1DPPC   C4B19428  16.112  21.980   4.520  0.0180  0.1110  0.0774
    1DPPC   NC319429   3.976   2.725   2.952  0.0423  0.0929 -0.1076
    1DPPC   PO419430   3.520   2.931   2.976  0.1848 -0.1112  0.1187
    1DPPC   GL119431   3.447   3.253   3.255  0.0616  0.4235  0.0037
    1DPPC   GL219432   3.573   3.496   3.255 -0.0131 -0.1859 -0.3084
    1DPPC   C1A19433   3.419   3.107   3.644  0.0760 -0.0057  0.0900
    1DPPC   C2A19434   3.464   3.159   4.072  0.0072  0.1190  0.2127
    1DPPC   C3A19435   3.815   2.948   4.318  0.4330 -0.0510 -0.0632
    1DPPC   C4A19436   4.107   3.080   4.594  0.0391  0.0057  0.1053
    1DPPC   C1B19437   3.817   3.397   3.635  0.0664 -0.4670 -0.1275
    1DPPC   C2B19438   3.898   3.422   3.998 -0.1417 -0.2660 -0.1667
    1DPPC   C3B19439   4.008   3.713   4.359  0.0410 -0.0368  0.0491
    1DPPC   C4B19440   4.192   4.138   4.497  0.0028 -0.1485 -0.0346
    1DPPC   NC319441  12.373  19.563   2.430  0.0653 -0.1953  0.2747
    1DPPC   PO419442  12.770  19.513   2.402  0.3029 -0.0201 -0.2595
    1DPPC   GL119443  12.750  19.741   2.767  0.2814  0.1867 -0.0976
    1DPPC   GL219444  12.453  19.863   2.891  0.2838 -0.1815  0.2482
    1DPPC   C1A19445  12.815  19.653   3.142 -0.0054  0.0710  0.0677
    1DPPC   C2A19446  12.806  19.651   3.537 -0.2186 -0.0583 -0.1573
    1DPPC   C3A19447  12.771  19.701   3.956  0.0187  0.1135 -0.1096
    1DPPC   C4A19448  12.634  19.592   4.377 -0.0350  0.0936  0.1555
    1DPPC   C1B19449  12.323  19.788   3.287  0.1875  0.0392 -0.1253
    1DPPC   C2B19450  12.264  19.739   3.696  0.1264 -0.0794 -0.3166
    1DPPC   C3B19451  12.183  19.767   4.086 -0.1330 -0.0444  0.1483
    1DPPC   C4B19452  11.819  19.944   4.317 -0.0234 -0.1927 -0.1874
    1DPPC   NC319453  11.248  15.253   2.632  0.4020  0.1294 -0.0088
    1DPPC   PO419454  11.644  15.512   2.653 -0.0127  0.1842  0.2275
    1DPPC   GL119455  11.950  15.387   2.792  0.2034 -0.0069 -0.0196
    1DPPC   GL219456  11.916  15.055   2.913 -0.2061  0.2387  0.0538
    1DPPC   C1A19457  12.152  15.389   3.157  0.0373 -0.1208 -0.4684
    1DPPC   C2A19458  12.018  15.403   3.554  0.1988 -0.0214  0.0166
    1DPPC   C3A19459  11.960  15.617   3.865 -0.0571 -0.2256  0.2055
    1DPPC   C4A19460  11.889  15.919   4.265  0.0342  0.0355 -0.1848
    1DPPC   C1B19461  11.680  14.998   3.302 -0.1282  0.2208  0.1647
    1DPPC   C2B19462  11.675  15.060   3.790 -0.1150 -0.0999  0.4287
    1DPPC   C3B19463  11.750  15.199   4.174  0.0869  0.3920 -0.1884
    1DPPC   C4B19464  11.817  15.034   4.569 -0.1792  0.0375  0.4050
    1DPPC   NC319465  10.560  13.672   2.199 -0.1198  0.2099  0.1196
    1DPPC   PO419466  10.718  13.415   2.618 -0.1110  0.0552 -0.0663
    1DPPC   GL119467  10.618  13.414   3.060  0.1223  0.1786  0.0119
    1DPPC   GL219468  10.333  13.253   3.116 -0.1616 -0.0598  0.1481
    1DPPC   C1A19469  10.629  13.497   3.510  0.0961  0.0806  0.1062
    1DPPC   C2A19470  10.687  13.561   3.956 -0.2659 -0.0565  0.0046
    1DPPC   C3A19471  10.645  13.706   4.368 -0.2542 -0.1822  0.2232
    1DPPC   C4A19472  10.915  13.941   4.642  0.2120 -0.2462  0.1436
    1DPPC   C1B19473  10.212  13.161   3.446  0.3238  0.1887 -0.1158
    1DPPC   C2B19474  10.285  13.254   3.796  0.0690  0.0506 -0.0470
    1DPPC   C3B19475  10.109  13.343   4.144  0.1813 -0.0370  0.1307
    1DPPC   C4B19476   9.917  13.505   4.508 -0.1405 -0.0013  0.1547
    1DPPC   NC319477  14.288  11.787   2.886  0.1721  0.0750 -0.1151
    1DPPC   PO419478  13.861  11.592   2.839 -0.0325 -0.0280 -0.0790
    1DPPC   GL119479  13.999  11.669   3.321  0.2484  0.0433 -0.0295
    1DPPC   GL219480  13.825  11.919   3.316  0.0606 -0.1539 -0.0386
    1DPPC   C1A19481  14.282  11.755   3.579 -0.3193 -0.0466 -0.0678
    1DPPC   C2A19482  14.390  12.014   3.975 -0.0208  0.1695 -0.4804
    1DPPC   C3A19483  14.502  12.119   4.393 -0.0111  0.1251  0.0616
    1DPPC   C4A19484  14.594  12.134   4.853 -0.0578 -0.0886 -0.3883
    1DPPC   C1B19485  13.895  12.011   3.783 -0.2999  0.0341 -0.0893
    1DPPC   C2B19486  13.975  12.200   4.213  0.2866  0.0155 -0.1165
    1DPPC   C3B19487  13.878  12.125   4.601 -0.3724 -0.3443 -0.3185
    1DPPC   C4B19488  14.119  12.115   5.013 -0.0590  0.2066  0.0693
    1DPPC   NC319489  14.749  18.407   2.572 -0.0754  0.2867  0.1486
    1DPPC   PO419490  14.477  18.753   2.465  0.1903 -0.2700  0.0001
    1DPPC   GL119491  14.539  18.829   2.923 -0.3193 -0.2230  0.1748
    1DPPC   GL219492  14.875  18.847   3.074  0.0025  0.0054 -0.0001
    1DPPC   C1A19493  14.473  18.967   3.382  0.3797  0.0209 -0.2350
    1DPPC   C2A19494  14.452  19.004   3.833 -0.0608  0.1927 -0.1682
    1DPPC   C3A19495  14.284  18.871   4.142  0.0435  0.2500 -0.1451
    1DPPC   C4A19496  14.398  18.705   4.500  0.0272  0.0243  0.1912
    1DPPC   C1B19497  14.904  18.821   3.469 -0.1273 -0.2161  0.0327
    1DPPC   C2B19498  14.907  18.813   3.917  0.2926 -0.0753  0.1048
    1DPPC   C3B19499  14.885  18.976   4.340  0.2804 -0.1957 -0.0161
    1DPPC   C4B19500  14.936  18.882   4.736  0.1110  0.2045 -0.2161
    1DPPC   NC319501  21.869  12.494   2.004  0.2894 -0.0758 -0.0281
    1DPPC   PO419502  21.586  12.665   2.230  0.1108 -0.2097  0.1294
    1DPPC   GL119503  21.531  12.863   2.599 -0.1741 -0.1848 -0.1315
    1DPPC   GL219504  21.163  12.988   2.661  0.1370  0.2945  0.2287
    1DPPC   C1A19505  21.376  12.867   3.076 -0.3231  0.1113 -0.1716
    1DPPC   C2A19506  21.258  12.808   3.524 -0.3408  0.0210  0.0495
    1DPPC   C3A19507  21.263  12.718   3.904  0.1353 -0.1805  0.2446
    1DPPC   C4A19508  21.170  12.339   4.124 -0.2213  0.0954 -0.2043
    1DPPC   C1B19509  21.157  13.310   2.929 -0.4621  0.0097 -0.0413
    1DPPC   C2B19510  21.158  13.510   3.365  0.0650  0.1259 -0.2357
    1DPPC   C3B19511  20.979  13.895   3.491 -0.2722  0.1011  0.3154
    1DPPC   C4B19512  20.627  14.057   3.433 -0.1663 -0.1547 -0.2257
    1DPPC   NC319513  17.872  15.041   2.183 -0.1184 -0.3790  0.1397
    1DPPC   PO419514  17.417  15.022   2.352  0.1754  0.3474 -0.0483
    1DPPC   GL119515  17.526  15.379   2.656 -0.1353 -0.0169 -0.2593
    1DPPC   GL219516  17.357  15.672   2.657 -0.0419 -0.1112  0.0376
    1DPPC   C1A19517  17.310  15.281   2.990  0.0195  0.2557 -0.1195
    1DPPC   C2A19518  17.395  15.472   3.423 -0.0339  0.1923 -0.1356
    1DPPC   C3A19519  17.457  15.591   3.802  0.0557  0.1064  0.1094
    1DPPC   C4A19520  17.445  15.678   4.201 -0.4849 -0.0858  0.1227
    1DPPC   C1B19521  17.331  15.829   3.058  0.1552  0.0533  0.1004
    1DPPC   C2B19522  17.337  15.963   3.484 -0.2552 -0.2661  0.0216
    1DPPC   C3B19523  17.304  16.085   3.896  0.2665 -0.0369  0.1344
    1DPPC   C4B19524  17.273  16.464   4.086 -0.0487  0.1254 -0.1342
    1DPPC   NC319525   8.891  16.644   2.573 -0.0011  0.0997  0.0111
    1DPPC   PO419526   8.977  16.317   2.790  0.0921 -0.0189  0.1354
    1DPPC   GL119527   8.931  16.662   3.131  0.0494  0.0364 -0.1082
    1DPPC   GL219528   8.855  17.044   3.002  0.1965  0.2044  0.2798
    1DPPC   C1A19529   8.877  16.884   3.499 -0.0643  0.0028  0.1286
    1DPPC   C2A19530   8.689  16.987   3.868 -0.0268 -0.2455 -0.1292
    1DPPC   C3A19531   8.631  17.071   4.316 -0.0846 -0.0110 -0.2626
    1DPPC   C4A19532   8.423  17.221   4.646 -0.0544 -0.1623 -0.0058
    1DPPC   C1B19533   9.092  17.299   3.301  0.2987  0.4345 -0.2256
    1DPPC   C2B19534   9.282  17.090   3.610 -0.1211  0.0968  0.0128
    1DPPC   C3B19535   9.190  16.868   3.897 -0.1339 -0.1442  0.1456
    1DPPC   C4B19536   9.165  16.971   4.310 -0.1140  0.2726 -0.0499
    1DPPC   NC319537  17.889  15.684   1.902 -0.1035 -0.2182 -0.0349
    1DPPC   PO419538  18.202  15.473   2.153 -0.1337 -0.0513 -0.2908
    1DPPC   GL119539  18.281  15.471   2.619 -0.0053 -0.0382  0.4387
    1DPPC   GL219540  18.035  15.256   2.771  0.2248  0.1140  0.4301
    1DPPC   C1A19541  18.474  15.556   3.006  0.0824 -0.0623  0.3695
    1DPPC   C2A19542  18.437  15.665   3.458 -0.0595  0.0375  0.4783
    1DPPC   C3A19543  18.433  15.585   3.902 -0.0243 -0.1825 -0.0382
    1DPPC   C4A19544  18.500  15.487   4.338 -0.1899  0.0260  0.0700
    1DPPC   C1B19545  18.155  15.019   3.205  0.2313  0.1244 -0.1474
    1DPPC   C2B19546  18.279  14.942   3.717  0.2841  0.2083  0.0463
    1DPPC   C3B19547  18.396  14.965   4.121  0.0167 -0.0543 -0.1958
    1DPPC   C4B19548  18.739  15.044   4.325  0.2162 -0.3676 -0.0087
    1DPPC   NC319549  27.359  23.253   2.378 -0.0079 -0.0714 -0.1258
    1DPPC   PO419550  27.154  23.116   2.557  0.0639  0.2263  0.0775
    1DPPC   GL119551  27.060  23.204   3.031 -0.2102 -0.1474  0.0146
    1DPPC   GL219552  27.084  23.501   3.227 -0.3663 -0.0657 -0.1029
    1DPPC   C1A19553  27.107  23.075   3.508 -0.0627  0.1950 -0.0333
    1DPPC   C2A19554  26.986  22.833   3.887  0.2013  0.1724 -0.0012
    1DPPC   C3A19555  26.617  22.464   3.991 -0.0177  0.3671  0.2438
    1DPPC   C4A19556  26.452  22.114   3.938  0.0645 -0.0363  0.0468
    1DPPC   C1B19557  27.327  23.477   3.651  0.1231 -0.4301  0.0144
    1DPPC   C2B19558  27.299  23.146   4.091  0.1192  0.4186 -0.0056
    1DPPC   C3B19559  27.506  22.658   4.200  0.3110  0.0071  0.1033
    1DPPC   C4B19560  27.583  22.338   4.392  0.1112 -0.0133 -0.0433
    1DPPC   NC319561  12.659  13.677   2.624 -0.0584 -0.0213  0.1652
    1DPPC   PO419562  12.268  13.429   2.770 -0.2298 -0.3035 -0.1018
    1DPPC   GL119563  12.087  13.822   3.003 -0.2058 -0.0921 -0.1154
    1DPPC   GL219564  11.838  13.603   3.074 -0.0587  0.3731 -0.0796
    1DPPC   C1A19565  11.942  13.961   3.466 -0.0420  0.0642  0.1245
    1DPPC   C2A19566  11.941  14.041   3.815 -0.3690  0.0347 -0.0358
    1DPPC   C3A19567  11.916  14.152   4.267 -0.1666  0.0276  0.3932
    1DPPC   C4A19568  11.549  14.052   4.516 -0.1544 -0.1279  0.0699
    1DPPC   C1B19569  12.097  13.480   3.401 -0.2122  0.0405  0.0228
    1DPPC   C2B19570  12.244  13.642   3.727 -0.1746  0.1345  0.2595
    1DPPC   C3B19571  12.284  13.831   4.153 -0.1841  0.2897 -0.0833
    1DPPC   C4B19572  12.482  13.880   4.575  0.1531  0.4007  0.1037
    1DPPC   NC319573  12.816  22.264   2.373  0.3598  0.2865  0.1270
    1DPPC   PO419574  13.060  21.917   2.373  0.0963 -0.0428  0.1206
    1DPPC   GL119575  13.239  21.799   2.749 -0.0488  0.1112  0.0431
    1DPPC   GL219576  13.641  21.673   2.717  0.1762 -0.0622 -0.1873
    1DPPC   C1A19577  13.371  21.870   3.133  0.0275  0.0677 -0.2142
    1DPPC   C2A19578  13.419  21.802   3.567 -0.3754 -0.2927  0.1079
    1DPPC   C3A19579  13.420  21.762   3.996 -0.1315  0.0548  0.1744
    1DPPC   C4A19580  13.579  21.640   4.259  0.0428 -0.0256  0.2387
    1DPPC   C1B19581  13.559  21.416   3.012 -0.0928  0.1354 -0.0460
    1DPPC   C2B19582  13.484  21.295   3.422  0.1899 -0.0574  0.0631
    1DPPC   C3B19583  13.548  21.262   3.916  0.0002  0.1346 -0.0073
    1DPPC   C4B19584  13.649  21.163   4.382  0.0331  0.0570  0.0863
    1DPPC   NC319585   9.023  22.357   2.137 -0.1432 -0.0617 -0.3431
    1DPPC   PO419586   8.926  21.953   2.268 -0.1909  0.2007  0.1243
    1DPPC   GL119587   8.959  21.840   2.723  0.5054 -0.2667 -0.0443
    1DPPC   GL219588   8.758  21.532   2.758 -0.1769 -0.0061  0.1296
    1DPPC   C1A19589   8.716  21.794   3.171 -0.2328  0.1137 -0.5238
    1DPPC   C2A19590   8.745  21.857   3.483 -0.2804  0.2956  0.4057
    1DPPC   C3A19591   8.789  21.973   3.906 -0.0978 -0.3735  0.2869
    1DPPC   C4A19592   8.851  22.046   4.356 -0.0988 -0.0990  0.2255
    1DPPC   C1B19593   8.804  21.262   3.115  0.0508  0.1252 -0.1565
    1DPPC   C2B19594   8.665  20.968   3.473 -0.0589  0.2459 -0.1492
    1DPPC   C3B19595   8.296  20.813   3.684  0.2212 -0.0648 -0.1258
    1DPPC   C4B19596   8.280  20.731   4.147 -0.0507  0.2601 -0.0147
    1DPPC   NC319597  16.442   2.621   3.051 -0.1174  0.1341  0.0858
    1DPPC   PO419598  16.605   2.725   3.477 -0.3448  0.1594 -0.3651
    1DPPC   GL119599  16.635   2.508   3.877 -0.0945 -0.0411 -0.0265
    1DPPC   GL219600  16.454   2.653   4.038  0.3558 -0.0257  0.1751
    1DPPC   C1A19601  16.582   2.222   4.296  0.2212 -0.0619 -0.1549
    1DPPC   C2A19602  16.702   2.071   4.738  0.2728  0.2000 -0.1722
    1DPPC   C3A19603  16.660   2.002   5.207 -0.1067 -0.3133  0.2716
    1DPPC   C4A19604  16.744   1.630   5.499 -0.0722 -0.2195  0.1627
    1DPPC   C1B19605  16.391   2.755   4.404 -0.1410 -0.2346 -0.1365
    1DPPC   C2B19606  15.970   2.816   4.670  0.2831  0.3516  0.0461
    1DPPC   C3B19607  15.856   2.672   4.967  0.0697 -0.0409  0.3511
    1DPPC   C4B19608  15.421   2.739   5.267  0.1061 -0.1143 -0.2165
    1DPPC   NC319609   5.109  28.321   3.250 -0.0604 -0.2134 -0.1586
    1DPPC   PO419610   4.724  28.637   3.374  0.1036  0.1532  0.1368
    1DPPC   GL119611   4.584  28.655   3.871  0.2180 -0.1629  0.0541
    1DPPC   GL219612   4.453  28.962   4.119 -0.0364 -0.1362  0.2281
    1DPPC   C1A19613   4.670  28.400   4.182  0.4072 -0.0320  0.1356
    1DPPC   C2A19614   4.627  28.026   4.399 -0.2108 -0.1550  0.3215
    1DPPC   C3A19615   4.509  27.591   4.526  0.0589 -0.0906 -0.4198
    1DPPC   C4A19616   4.807  27.344   4.646 -0.0368 -0.3024 -0.2130
    1DPPC   C1B19617   4.341  28.669   4.388  0.2200 -0.1011  0.0982
    1DPPC   C2B19618   4.287  28.435   4.685 -0.3423 -0.1480 -0.3131
    1DPPC   C3B19619   3.907  28.521   4.967  0.0486 -0.0300  0.1851
    1DPPC   C4B19620   3.508  28.520   5.202  0.0946 -0.0429 -0.0342
    1DPPC   NC319621  18.419  20.318   2.359 -0.1058 -0.0898  0.0147
    1DPPC   PO419622  18.647  19.943   2.204  0.1014 -0.1175  0.0876
    1DPPC   GL119623  18.540  19.781   2.514  0.0745  0.0274 -0.0078
    1DPPC   GL219624  18.689  20.013   2.768 -0.2987 -0.1512 -0.0228
    1DPPC   C1A19625  18.355  19.669   2.903 -0.0032  0.0630 -0.2501
    1DPPC   C2A19626  18.267  19.642   3.356  0.0371 -0.0101  0.0913
    1DPPC   C3A19627  18.200  19.689   3.878 -0.1178  0.0636  0.0083
    1DPPC   C4A19628  18.116  19.742   4.303 -0.6789  0.1907 -0.2569
    1DPPC   C1B19629  18.526  20.072   3.205 -0.0755  0.2524 -0.3801
    1DPPC   C2B19630  18.483  20.021   3.682  0.0491  0.0265  0.1151
    1DPPC   C3B19631  18.678  20.270   4.066  0.1198  0.0909  0.0343
    1DPPC   C4B19632  18.821  20.535   4.273 -0.1800 -0.0858  0.1237
    1DPPC   NC319633  11.584  10.869   3.240 -0.1766 -0.0624  0.0116
    1DPPC   PO419634  11.265  10.773   3.527  0.2496 -0.3790  0.0618
    1DPPC   GL119635  11.409  10.926   3.901 -0.0236 -0.2895  0.4209
    1DPPC   GL219636  11.268  11.225   4.043 -0.0651 -0.0720  0.0048
    1DPPC   C1A19637  11.728  11.023   4.160 -0.0561 -0.1681  0.0016
    1DPPC   C2A19638  11.823  10.937   4.580  0.0129  0.1831 -0.0810
    1DPPC   C3A19639  12.057  10.826   4.977 -0.1957  0.0929 -0.3353
    1DPPC   C4A19640  12.268  10.437   5.112 -0.2827 -0.3340  0.0379
    1DPPC   C1B19641  11.436  11.308   4.489 -0.3598  0.1767  0.2187
    1DPPC   C2B19642  11.684  11.334   4.852  0.3874 -0.1122  0.0267
    1DPPC   C3B19643  11.912  11.252   5.304  0.0796  0.1695 -0.3290
    1DPPC   C4B19644  11.983  11.186   5.749  0.2767  0.0474 -0.1669
    1DPPC   NC319645  10.973  17.738   2.223  0.1200  0.1606  0.0249
    1DPPC   PO419646  10.934  17.335   2.265  0.2227 -0.2022  0.0933
    1DPPC   GL119647  10.687  17.465   2.586  0.4933 -0.0164 -0.1294
    1DPPC   GL219648  10.671  17.883   2.563 -0.1239 -0.1601  0.2073
    1DPPC   C1A19649  10.628  17.113   2.899 -0.2048 -0.1734 -0.0611
    1DPPC   C2A19650  10.671  17.073   3.331 -0.2780 -0.3580  0.0596
    1DPPC   C3A19651  10.612  17.225   3.785  0.0323 -0.3189  0.2380
    1DPPC   C4A19652  10.528  17.334   4.159  0.4694 -0.1699 -0.0297
    1DPPC   C1B19653  10.642  17.916   2.969 -0.3689  0.0422 -0.1110
    1DPPC   C2B19654  10.487  17.822   3.311 -0.0692 -0.1921 -0.2512
    1DPPC   C3B19655  10.343  17.704   3.725  0.0607 -0.0397  0.1217
    1DPPC   C4B19656  10.492  17.874   4.164  0.0671 -0.0234 -0.1322
    1DPPC   NC319657  10.448   9.216   3.103  0.0908  0.0050 -0.1359
    1DPPC   PO419658  10.289   9.108   3.422 -0.0605 -0.2430 -0.1094
    1DPPC   GL119659  10.436   9.066   3.846  0.1302 -0.1341 -0.0729
    1DPPC   GL219660  10.631   8.822   3.946  0.2260 -0.1997  0.3070
    1DPPC   C1A19661  10.158   9.161   4.180  0.1571 -0.2997 -0.0723
    1DPPC   C2A19662  10.082   9.172   4.508 -0.0543 -0.3269  0.2194
    1DPPC   C3A19663  10.184   9.131   5.009 -0.0477 -0.2564 -0.0636
    1DPPC   C4A19664  10.176   9.334   5.357  0.0429  0.0773 -0.1816
    1DPPC   C1B19665  10.549   8.903   4.430  0.0106  0.2335  0.0460
    1DPPC   C2B19666  10.651   9.081   4.844 -0.1417  0.0958  0.1127
    1DPPC   C3B19667  10.706   9.201   5.238 -0.0429 -0.0806 -0.0391
    1DPPC   C4B19668  10.888   9.527   5.532 -0.1291 -0.0237 -0.0348
    1DPPC   NC319669  17.189  11.046   2.664  0.2476  0.0191  0.2573
    1DPPC   PO419670  17.306  11.491   2.463  0.0452 -0.1580 -0.2868
    1DPPC   GL119671  17.574  11.819   2.645  0.0759 -0.2206 -0.1361
    1DPPC   GL219672  17.766  11.877   2.435  0.2679  0.0977 -0.0466
    1DPPC   C1A19673  17.675  12.051   3.000 -0.2443 -0.0000  0.0479
    1DPPC   C2A19674  17.660  12.032   3.474  0.0287  0.1071  0.0133
    1DPPC   C3A19675  17.468  11.816   3.857  0.0313 -0.3060 -0.0639
    1DPPC   C4A19676  17.398  11.859   4.307  0.3182  0.0082 -0.1045
    1DPPC   C1B19677  18.119  11.803   2.729  0.0264  0.1068  0.1589
    1DPPC   C2B19678  18.357  11.799   3.036  0.1594  0.0940 -0.0126
    1DPPC   C3B19679  18.476  11.803   3.494 -0.0203  0.0358 -0.0815
    1DPPC   C4B19680  18.472  11.705   3.923 -0.0808 -0.0156 -0.0800
    1DPPC   NC319681  11.448  22.729   2.443 -0.2924 -0.1350  0.0447
    1DPPC   PO419682  11.389  22.305   2.661  0.1707  0.0495  0.1080
    1DPPC   GL119683  11.287  22.494   3.056  0.2624 -0.1194  0.0686
    1DPPC   GL219684  11.274  22.813   3.020 -0.1862 -0.0387  0.2163
    1DPPC   C1A19685  11.252  22.558   3.473 -0.0837  0.0002 -0.0121
    1DPPC   C2A19686  11.143  22.313   3.931  0.1870  0.1170  0.2237
    1DPPC   C3A19687  10.925  21.890   4.030 -0.1747  0.0576  0.0178
    1DPPC   C4A19688  10.875  21.548   4.217  0.1855  0.0635  0.2921
    1DPPC   C1B19689  11.474  23.052   3.349  0.0009  0.1465  0.0230
    1DPPC   C2B19690  11.711  23.034   3.759 -0.1328  0.0961  0.0898
    1DPPC   C3B19691  11.968  22.922   4.154  0.0316 -0.1706  0.0934
    1DPPC   C4B19692  12.288  22.854   4.387  0.1971  0.0520 -0.4580
    1DPPC   NC319693  18.814  14.632   1.887  0.1883  0.1646  0.0242
    1DPPC   PO419694  18.507  14.414   2.033  0.0629 -0.2234  0.1303
    1DPPC   GL119695  18.574  14.450   2.477 -0.1070 -0.0788 -0.0352
    1DPPC   GL219696  18.908  14.513   2.347 -0.0400 -0.1185  0.0021
    1DPPC   C1A19697  18.418  14.501   2.971 -0.3321  0.1793 -0.0394
    1DPPC   C2A19698  18.390  14.504   3.368  0.0106 -0.2511 -0.0898
    1DPPC   C3A19699  18.382  14.317   3.866  0.1325  0.1699 -0.1494
    1DPPC   C4A19700  18.444  14.306   4.344  0.1471 -0.1107  0.2550
    1DPPC   C1B19701  18.890  14.605   2.820  0.3507  0.0559 -0.1635
    1DPPC   C2B19702  18.831  14.673   3.224  0.0670  0.4417  0.1154
    1DPPC   C3B19703  18.858  14.720   3.639 -0.0977  0.0812  0.4465
    1DPPC   C4B19704  18.803  14.616   4.092  0.1650 -0.2418  0.0667
    1DPPC   NC319705  18.848   0.897   3.018 -0.1039 -0.0090  0.2921
    1DPPC   PO419706  19.180   1.172   3.132  0.0770 -0.1143 -0.0163
    1DPPC   GL119707  19.212   1.014   3.494 -0.3190  0.1265 -0.1431
    1DPPC   GL219708  19.499   1.134   3.632 -0.1991 -0.0170  0.1956
    1DPPC   C1A19709  19.361   0.722   3.912 -0.2055 -0.1148  0.2671
    1DPPC   C2A19710  19.419   0.382   4.093  0.0604  0.0404 -0.0267
    1DPPC   C3A19711  19.346   0.267   4.504 -0.0729 -0.4939  0.1366
    1DPPC   C4A19712  19.136  -0.006   4.822 -0.2926  0.2976  0.0598
    1DPPC   C1B19713  19.809   1.101   3.881  0.1327 -0.2073 -0.1692
    1DPPC   C2B19714  20.055   1.000   4.280  0.0469  0.2273 -0.0202
    1DPPC   C3B19715  20.163   1.287   4.547 -0.0173  0.2003 -0.0824
    1DPPC   C4B19716  20.501   1.364   4.830  0.2738 -0.0396 -0.0704
    1DPPC   NC319717  13.740  16.086   2.216 -0.2926 -0.2742 -0.1631
    1DPPC   PO419718  13.602  15.650   2.409 -0.1202  0.2956  0.3706
    1DPPC   GL119719  13.339  15.394   2.736  0.0113 -0.1207  0.1254
    1DPPC   GL219720  13.467  15.029   2.825  0.4138 -0.1116 -0.1367
    1DPPC   C1A19721  13.430  15.372   3.239  0.1432 -0.1570  0.5972
    1DPPC   C2A19722  13.436  15.458   3.634 -0.2053  0.2368  0.1269
    1DPPC   C3A19723  13.282  15.472   3.992 -0.1337 -0.1002  0.1628
    1DPPC   C4A19724  13.477  15.640   4.361  0.0548  0.1262  0.0234
    1DPPC   C1B19725  13.603  14.893   3.214 -0.2519 -0.0044 -0.0231
    1DPPC   C2B19726  13.701  15.032   3.539 -0.3002 -0.0030 -0.0573
    1DPPC   C3B19727  13.565  14.985   3.959 -0.3470  0.0641 -0.0641
    1DPPC   C4B19728  13.672  15.186   4.343  0.0387 -0.3674  0.0433
    1DPPC   NC319729  11.049  13.733   2.502  0.1440 -0.2789  0.0037
    1DPPC   PO419730  10.684  14.031   2.507  0.2941  0.1526  0.2033
    1DPPC   GL119731  10.764  13.936   2.927 -0.0581 -0.0066  0.3039
    1DPPC   GL219732  10.567  14.057   3.061  0.1643  0.2250 -0.0965
    1DPPC   C1A19733  11.010  13.820   3.287 -0.0518 -0.0891 -0.1347
    1DPPC   C2A19734  11.127  13.972   3.722 -0.0539 -0.0022 -0.0255
    1DPPC   C3A19735  11.152  14.011   4.206 -0.0904 -0.0292  0.2457
    1DPPC   C4A19736  11.162  14.381   4.497 -0.1761 -0.0023 -0.0713
    1DPPC   C1B19737  10.616  13.999   3.553 -0.0391 -0.0560  0.1626
    1DPPC   C2B19738  10.631  14.061   3.940 -0.3312  0.1557 -0.1423
    1DPPC   C3B19739  10.726  14.267   4.368  0.2847  0.0487 -0.2239
    1DPPC   C4B19740  10.371  14.374   4.635 -0.0550 -0.1359 -0.1409
    1DPPC   NC319741   9.527  18.240   2.300  0.1207 -0.0871  0.0029
    1DPPC   PO419742   9.126  18.411   2.471 -0.1956  0.2370  0.3183
    1DPPC   GL119743   9.033  18.476   2.912 -0.2103  0.2809 -0.0320
    1DPPC   GL219744   8.847  18.189   3.004 -0.2759  0.0136 -0.0329
    1DPPC   C1A19745   8.912  18.615   3.279 -0.3571 -0.1510  0.4305
    1DPPC   C2A19746   8.649  18.581   3.589 -0.1321 -0.0417  0.1703
    1DPPC   C3A19747   8.586  18.613   4.001 -0.2017 -0.0917  0.0202
    1DPPC   C4A19748   8.261  18.813   4.049  0.1632  0.0876 -0.0728
    1DPPC   C1B19749   8.827  18.128   3.480  0.1312 -0.3359  0.2541
    1DPPC   C2B19750   8.699  18.142   3.892  0.0895  0.1432  0.4146
    1DPPC   C3B19751   8.753  17.845   4.221  0.0994  0.4055  0.2589
    1DPPC   C4B19752   8.618  17.941   4.586 -0.1971  0.1908  0.4013
    1DPPC   NC319753  12.886  21.478   2.287  0.0745  0.3482  0.0342
    1DPPC   PO419754  12.837  21.066   2.381 -0.0530  0.3622  0.2357
    1DPPC   GL119755  12.926  21.299   2.718 -0.2487 -0.3270 -0.1513
    1DPPC   GL219756  12.791  21.190   2.961 -0.1814  0.3170  0.3752
    1DPPC   C1A19757  13.060  21.500   3.147  0.1924  0.0074  0.0736
    1DPPC   C2A19758  13.010  21.537   3.616  0.0355  0.0852  0.1156
    1DPPC   C3A19759  13.039  21.408   4.036 -0.0513 -0.2549  0.2020
    1DPPC   C4A19760  12.995  21.441   4.465 -0.0698  0.2486  0.1755
    1DPPC   C1B19761  12.574  21.547   3.099 -0.0615 -0.1289 -0.2357
    1DPPC   C2B19762  12.465  21.643   3.429 -0.1177  0.1729 -0.1391
    1DPPC   C3B19763  12.596  21.718   3.873  0.2364  0.1364 -0.1003
    1DPPC   C4B19764  12.393  21.942   4.220  0.0282  0.2266  0.1259
    1DPPC   NC319765  12.605  24.740   3.048  0.4064 -0.1369 -0.1306
    1DPPC   PO419766  13.072  24.560   3.119 -0.5495  0.1351 -0.0586
    1DPPC   GL119767  13.242  24.488   3.523 -0.1764  0.0653 -0.1241
    1DPPC   GL219768  13.129  24.799   3.627  0.0943 -0.1889 -0.2767
    1DPPC   C1A19769  13.466  24.209   3.799 -0.0511 -0.0970  0.1358
    1DPPC   C2A19770  13.547  24.144   4.168  0.0072  0.1988  0.0541
    1DPPC   C3A19771  13.234  24.304   4.457  0.1068 -0.0221 -0.1559
    1DPPC   C4A19772  12.899  24.145   4.867 -0.1784 -0.1188 -0.0495
    1DPPC   C1B19773  13.402  24.704   3.985  0.1404  0.2198  0.0600
    1DPPC   C2B19774  13.587  24.848   4.358 -0.5150  0.1635 -0.2274
    1DPPC   C3B19775  13.507  24.636   4.755 -0.3800 -0.0372 -0.1581
    1DPPC   C4B19776  13.387  24.548   5.183  0.3211 -0.0119  0.0074
    1DPPC   NC319777   9.926  10.915   3.068  0.0617  0.0065  0.1922
    1DPPC   PO419778   9.798  11.250   3.206 -0.3021  0.2214 -0.0911
    1DPPC   GL119779   9.687  11.519   3.573 -0.4117  0.2689 -0.1209
    1DPPC   GL219780   9.568  11.312   3.709 -0.3021 -0.1851  0.1500
    1DPPC   C1A19781   9.825  11.808   3.919  0.0948  0.2033  0.0385
    1DPPC   C2A19782   9.890  11.966   4.327 -0.0798 -0.2048 -0.2302
    1DPPC   C3A19783   9.938  12.047   4.763  0.0099  0.0133 -0.2296
    1DPPC   C4A19784  10.016  12.216   5.177 -0.0136  0.0220 -0.2136
    1DPPC   C1B19785   9.659  11.427   4.209 -0.4438  0.1489  0.1517
    1DPPC   C2B19786   9.819  11.457   4.653 -0.3255 -0.1671 -0.0436
    1DPPC   C3B19787   9.693  11.578   4.987  0.0927 -0.2828 -0.0608
    1DPPC   C4B19788   9.427  11.627   5.312 -0.0116 -0.0278 -0.0906
    1DPPC   NC319789  15.981  18.672   2.209 -0.3789 -0.1121  0.2787
    1DPPC   PO419790  15.955  19.073   2.289 -0.2274 -0.1046  0.1856
    1DPPC   GL119791  16.052  18.952   2.770  0.1928 -0.0878  0.4921
    1DPPC   GL219792  16.036  18.580   2.790  0.2094 -0.1749  0.1729
    1DPPC   C1A19793  15.907  18.937   3.205  0.2339 -0.0386  0.1373
    1DPPC   C2A19794  15.929  18.962   3.722 -0.1336 -0.0021  0.1463
    1DPPC   C3A19795  15.868  19.040   4.090 -0.3096  0.0262  0.3284
    1DPPC   C4A19796  15.942  19.152   4.492 -0.0590  0.0716  0.3773
    1DPPC   C1B19797  16.114  18.484   3.165 -0.2476 -0.1001  0.1202
    1DPPC   C2B19798  16.022  18.418   3.494 -0.0713  0.0794  0.0321
    1DPPC   C3B19799  16.151  18.486   3.851  0.1829 -0.1453  0.4568
    1DPPC   C4B19800  16.011  18.636   4.296 -0.1933  0.1940  0.2760
    1DPPC   NC319801  21.192  10.523   2.411  0.2449 -0.2089  0.2775
    1DPPC   PO419802  20.741  10.578   2.494  0.0272  0.2043  0.0678
    1DPPC   GL119803  20.563  10.765   2.821 -0.2044 -0.0631 -0.2366
    1DPPC   GL219804  20.367  10.966   2.754  0.0158  0.1675  0.4935
    1DPPC   C1A19805  20.664  10.784   3.319 -0.2504 -0.0144 -0.0303
    1DPPC   C2A19806  20.585  10.788   3.796 -0.2159 -0.3570  0.1302
    1DPPC   C3A19807  20.654  10.594   4.217  0.0047  0.1361 -0.0043
    1DPPC   C4A19808  21.047  10.376   4.326 -0.1942  0.3194  0.1637
    1DPPC   C1B19809  20.351  11.166   3.103 -0.0326 -0.1980 -0.1747
    1DPPC   C2B19810  20.449  11.184   3.517  0.1015  0.0292 -0.0810
    1DPPC   C3B19811  20.534  11.317   3.950  0.4533  0.0937 -0.0124
    1DPPC   C4B19812  20.520  11.519   4.315  0.3000  0.0687 -0.1945
    1DPPC   NC319813  13.259   7.296   4.081 -0.2228  0.0751 -0.2098
    1DPPC   PO419814  13.530   7.739   3.991  0.1089  0.0692 -0.0655
    1DPPC   GL119815  13.738   7.667   4.298  0.2799 -0.0711  0.0672
    1DPPC   GL219816  13.742   7.985   4.424 -0.0179 -0.0827  0.1500
    1DPPC   C1A19817  13.810   7.586   4.702 -0.2312 -0.5937  0.1764
    1DPPC   C2A19818  13.936   7.560   5.113  0.0337  0.0012  0.0413
    1DPPC   C3A19819  14.112   7.181   5.232 -0.0202 -0.0717 -0.4281
    1DPPC   C4A19820  14.085   6.811   5.438  0.2582 -0.3333  0.0510
    1DPPC   C1B19821  13.905   8.059   4.841 -0.2351 -0.1394 -0.0105
    1DPPC   C2B19822  14.021   8.023   5.329  0.1288 -0.0897 -0.0939
    1DPPC   C3B19823  13.895   8.255   5.694  0.0199  0.0739  0.0124
    1DPPC   C4B19824  13.774   7.984   6.053  0.1516  0.0252 -0.1290
    1DPPC   NC319825  19.334  15.332   2.181  0.1877  0.1956 -0.1065
    1DPPC   PO419826  19.821  15.305   2.048  0.2911 -0.0356 -0.1823
    1DPPC   GL119827  19.766  15.461   2.444  0.0092 -0.1681  0.2348
    1DPPC   GL219828  20.055  15.367   2.581 -0.0282 -0.1394  0.0626
    1DPPC   C1A19829  19.417  15.538   2.848 -0.0801  0.1410  0.1514
    1DPPC   C2A19830  19.543  15.574   3.179  0.0492  0.0197 -0.0519
    1DPPC   C3A19831  19.522  15.525   3.526  0.0233 -0.2687 -0.1120
    1DPPC   C4A19832  19.453  15.614   3.930 -0.1761 -0.0083 -0.0143
    1DPPC   C1B19833  20.052  15.497   2.948  0.1165  0.1921  0.1253
    1DPPC   C2B19834  20.018  15.522   3.332 -0.0509  0.0075 -0.0352
    1DPPC   C3B19835  20.030  15.409   3.768 -0.1271 -0.2365  0.0953
    1DPPC   C4B19836  19.880  15.532   4.146  0.2401 -0.2737 -0.0354
    1DPPC   NC319837  12.885  10.678   2.984 -0.7123 -0.0503  0.0308
    1DPPC   PO419838  12.623  10.608   3.415  0.1111  0.0978 -0.0304
    1DPPC   GL119839  12.961  10.731   3.479 -0.1107  0.0137  0.1222
    1DPPC   GL219840  13.084  10.476   3.729  0.2414  0.1241 -0.0676
    1DPPC   C1A19841  13.060  10.934   3.796  0.0754  0.0747  0.0023
    1DPPC   C2A19842  12.927  10.900   4.214 -0.3066  0.1110  0.0192
    1DPPC   C3A19843  13.191  10.969   4.590 -0.1993  0.0072 -0.0515
    1DPPC   C4A19844  13.366  11.313   4.774 -0.1245  0.2399 -0.0772
    1DPPC   C1B19845  13.342  10.582   4.082 -0.2734 -0.2598 -0.1435
    1DPPC   C2B19846  13.533  10.624   4.401 -0.3011  0.0494  0.0483
    1DPPC   C3B19847  13.605  10.759   4.766  0.2097  0.0150  0.4083
    1DPPC   C4B19848  13.502  10.918   5.223  0.1514  0.0997  0.0071
    1DPPC   NC319849  18.270   3.308   3.027 -0.0572  0.3291  0.0694
    1DPPC   PO419850  17.982   3.297   3.316 -0.0042 -0.0110 -0.0992
    1DPPC   GL119851  18.073   3.309   3.708  0.0905  0.2470 -0.1510
    1DPPC   GL219852  17.906   3.095   3.843  0.0836 -0.1072  0.1994
    1DPPC   C1A19853  18.308   3.503   4.197  0.4360 -0.0025 -0.3546
    1DPPC   C2A19854  18.621   3.639   4.499 -0.4495 -0.0138 -0.2544
    1DPPC   C3A19855  18.864   3.487   4.758 -0.4748 -0.1008  0.2890
    1DPPC   C4A19856  18.780   3.385   5.162  0.0112  0.1245  0.0286
    1DPPC   C1B19857  18.259   2.926   4.103  0.1766 -0.2189  0.2530
    1DPPC   C2B19858  18.533   3.098   4.466 -0.2177  0.0325 -0.3049
    1DPPC   C3B19859  18.370   3.217   4.903 -0.0662  0.1876  0.0746
    1DPPC   C4B19860  18.005   3.321   5.102 -0.0278 -0.0260  0.2609
    1DPPC   NC319861  15.729  18.294   1.684  0.0366 -0.0797  0.2459
    1DPPC   PO419862  15.783  18.213   2.154 -0.0365 -0.2187  0.0351
    1DPPC   GL119863  15.857  18.093   2.642 -0.1764  0.0085 -0.1035
    1DPPC   GL219864  16.179  17.954   2.835 -0.0877 -0.2106  0.0780
    1DPPC   C1A19865  15.816  18.070   3.141  0.0761  0.0415 -0.0509
    1DPPC   C2A19866  15.902  17.948   3.584  0.0859  0.2860 -0.1109
    1DPPC   C3A19867  15.803  18.139   3.870 -0.3138  0.1071  0.2639
    1DPPC   C4A19868  15.882  18.164   4.205  0.0207  0.1350  0.0708
    1DPPC   C1B19869  16.355  18.003   3.224  0.0197  0.1039 -0.1302
    1DPPC   C2B19870  16.337  18.046   3.731  0.0665  0.1391 -0.0020
    1DPPC   C3B19871  16.367  18.107   4.089 -0.0926  0.0701  0.0383
    1DPPC   C4B19872  16.249  17.823   4.462 -0.0314  0.0535  0.1794
    1DPPC   NC319873  16.447  12.160   2.272 -0.1646  0.1262  0.2911
    1DPPC   PO419874  16.119  12.497   2.319  0.1990 -0.0238 -0.2460
    1DPPC   GL119875  16.440  12.512   2.699  0.1978  0.3217  0.0008
    1DPPC   GL219876  16.806  12.468   2.583 -0.0567 -0.1558 -0.1653
    1DPPC   C1A19877  16.396  12.550   3.079 -0.0538 -0.1296 -0.2215
    1DPPC   C2A19878  16.310  12.394   3.572  0.0524 -0.0302 -0.2905
    1DPPC   C3A19879  16.296  12.504   4.039 -0.1339  0.2140  0.2214
    1DPPC   C4A19880  16.370  12.587   4.419  0.1498  0.0014 -0.0510
    1DPPC   C1B19881  16.969  12.679   2.929  0.1201  0.0093  0.0473
    1DPPC   C2B19882  16.844  12.634   3.318  0.1103  0.1670 -0.2123
    1DPPC   C3B19883  16.822  12.531   3.729 -0.0843 -0.0315  0.1502
    1DPPC   C4B19884  16.788  12.625   4.192 -0.0682  0.0340  0.0297
    1DPPC   NC319885   7.721   1.319   2.796  0.3570 -0.0614  0.1661
    1DPPC   PO419886   7.797   1.239   3.234  0.0204 -0.1228  0.1193
    1DPPC   GL119887   8.156   1.297   3.461 -0.0311 -0.2101  0.1217
    1DPPC   GL219888   8.077   1.343   3.886  0.0615 -0.0141  0.2120
    1DPPC   C1A19889   8.404   0.994   3.749  0.1112 -0.1551 -0.2837
    1DPPC   C2A19890   8.410   0.707   4.139 -0.0093 -0.1783 -0.1189
    1DPPC   C3A19891   8.317   0.676   4.576 -0.2325  0.1084 -0.0615
    1DPPC   C4A19892   8.538   0.405   4.912 -0.1262 -0.0352 -0.4709
    1DPPC   C1B19893   8.286   1.260   4.141 -0.1257  0.0029  0.2158
    1DPPC   C2B19894   8.075   1.145   4.538 -0.1217  0.1038 -0.1908
    1DPPC   C3B19895   7.903   1.461   4.857 -0.3158 -0.2529 -0.1255
    1DPPC   C4B19896   7.864   1.699   5.160 -0.0060  0.2024 -0.1983
    1DPPC   NC319897  10.789   8.834   3.438  0.0968 -0.0060 -0.0849
    1DPPC   PO419898  10.775   8.374   3.597 -0.0614 -0.1715  0.0888
    1DPPC   GL119899  10.760   8.252   4.007 -0.0709 -0.0181  0.0337
    1DPPC   GL219900  10.445   8.036   4.090 -0.1101 -0.3376  0.1229
    1DPPC   C1A19901  10.941   8.126   4.342 -0.1301  0.1598  0.3924
    1DPPC   C2A19902  11.069   8.119   4.702  0.0492  0.1619  0.3290
    1DPPC   C3A19903  11.172   8.214   5.076  0.2071  0.3421 -0.1603
    1DPPC   C4A19904  11.538   8.171   5.283  0.0656 -0.1050 -0.2611
    1DPPC   C1B19905  10.516   7.918   4.442 -0.2148  0.0604  0.2946
    1DPPC   C2B19906  10.676   7.931   4.939 -0.1284 -0.0215  0.0361
    1DPPC   C3B19907  10.762   8.048   5.345  0.0383 -0.1478 -0.0862
    1DPPC   C4B19908  10.801   8.032   5.751 -0.3171 -0.0880 -0.1465
    1DPPC   NC319909  10.964  19.078   2.230  0.1405  0.1053  0.0390
    1DPPC   PO419910  11.277  19.148   2.399  0.2982 -0.0915 -0.0762
    1DPPC   GL119911  11.044  19.146   2.726  0.1076  0.1077 -0.0188
    1DPPC   GL219912  10.687  19.082   2.628 -0.1371 -0.1448 -0.0614
    1DPPC   C1A19913  11.001  19.083   3.211 -0.0476 -0.1124  0.2113
    1DPPC   C2A19914  10.898  19.049   3.710 -0.2529  0.0912 -0.0775
    1DPPC   C3A19915  10.828  19.064   4.120  0.1204  0.0052  0.1039
    1DPPC   C4A19916  10.763  18.920   4.509  0.0614 -0.0998 -0.0324
    1DPPC   C1B19917  10.833  18.742   2.905 -0.0215  0.0257  0.1120
    1DPPC   C2B19918  10.911  18.412   3.136  0.1727 -0.0760 -0.0330
    1DPPC   C3B19919  10.850  18.150   3.410  0.3483  0.0357  0.0394
    1DPPC   C4B19920  10.784  17.975   3.762 -0.2544 -0.0971  0.4138
    1DPPC   NC319921   5.248  11.870   2.654  0.0723 -0.1350  0.0463
    1DPPC   PO419922   5.264  12.143   3.004  0.0164 -0.0985  0.0220
    1DPPC   GL119923   5.188  11.973   3.495 -0.0478 -0.3364  0.5026
    1DPPC   GL219924   5.402  11.746   3.472 -0.2493  0.2202  0.0610
    1DPPC   C1A19925   5.093  12.185   3.877  0.1185 -0.1858  0.0725
    1DPPC   C2A19926   4.911  12.134   4.362  0.2828 -0.0931  0.0906
    1DPPC   C3A19927   4.689  12.035   4.694  0.0695 -0.2341 -0.0382
    1DPPC   C4A19928   4.621  12.032   5.083  0.0316 -0.0601 -0.1673
    1DPPC   C1B19929   5.714  11.731   3.856  0.1585  0.0017  0.0475
    1DPPC   C2B19930   5.962  11.839   4.115  0.2043 -0.0630  0.1804
    1DPPC   C3B19931   6.082  11.575   4.425  0.0673  0.0761  0.0076
    1DPPC   C4B19932   6.039  11.503   4.857 -0.0117 -0.1551  0.2017
    1DPPC   NC319933   9.473   9.648   3.901  0.1915  0.0169  0.0039
    1DPPC   PO419934   9.872   9.861   3.874 -0.3809 -0.0029 -0.1974
    1DPPC   GL119935  10.006   9.652   4.202 -0.1588  0.2625  0.3197
    1DPPC   GL219936   9.807   9.527   4.267 -0.0996 -0.0846 -0.1461
    1DPPC   C1A19937  10.322   9.659   4.386 -0.3042  0.0859  0.0314
    1DPPC   C2A19938  10.364   9.558   4.826 -0.3343  0.1484  0.0140
    1DPPC   C3A19939  10.533   9.666   5.225  0.0880 -0.1820 -0.1658
    1DPPC   C4A19940  10.659   9.988   5.519 -0.1679  0.2982 -0.0943
    1DPPC   C1B19941   9.847   9.595   4.670  0.4397 -0.0154 -0.2360
    1DPPC   C2B19942   9.932   9.678   5.084  0.1050  0.0386 -0.0768
    1DPPC   C3B19943  10.076   9.918   5.462  0.2808 -0.1518 -0.0080
    1DPPC   C4B19944   9.938  10.096   5.858  0.0260  0.1351  0.0109
    1DPPC   NC319945  24.073  18.921   2.067  0.0171 -0.1380  0.0525
    1DPPC   PO419946  23.811  18.496   2.012  0.0176 -0.1220 -0.0566
    1DPPC   GL119947  23.944  18.444   2.494 -0.1196  0.0641  0.0875
    1DPPC   GL219948  24.265  18.464   2.432 -0.3563 -0.1751 -0.2309
    1DPPC   C1A19949  23.970  18.352   2.795 -0.1179  0.1761  0.0407
    1DPPC   C2A19950  24.043  18.318   3.220  0.1095 -0.1054  0.0561
    1DPPC   C3A19951  24.009  18.127   3.598  0.0613 -0.0428  0.2033
    1DPPC   C4A19952  24.021  18.103   4.013 -0.2664 -0.0599 -0.1429
    1DPPC   C1B19953  24.483  18.305   2.838  0.0865  0.1771  0.0618
    1DPPC   C2B19954  24.509  18.206   3.311  0.0790 -0.1122  0.2193
    1DPPC   C3B19955  24.449  18.397   3.735 -0.1400  0.1004 -0.1843
    1DPPC   C4B19956  24.187  18.537   4.096  0.0603 -0.0939 -0.0297
    1DPPC   NC319957  17.168  14.032   1.346  0.2776  0.1307  0.0455
    1DPPC   PO419958  17.342  13.907   1.671 -0.2858 -0.0219 -0.0053
    1DPPC   GL119959  17.271  14.029   2.086  0.1473 -0.0402  0.2260
    1DPPC   GL219960  17.468  14.105   2.307  0.2210 -0.1626  0.1727
    1DPPC   C1A19961  16.995  14.106   2.574  0.0762 -0.3570  0.0558
    1DPPC   C2A19962  17.053  14.247   3.013  0.0961  0.0946 -0.1686
    1DPPC   C3A19963  16.884  14.245   3.390 -0.2182  0.0573 -0.0820
    1DPPC   C4A19964  16.935  14.256   3.854 -0.3770  0.4203 -0.2909
    1DPPC   C1B19965  17.446  13.958   2.789  0.0205 -0.0049  0.0211
    1DPPC   C2B19966  17.639  14.105   3.148  0.1524 -0.2882  0.3930
    1DPPC   C3B19967  17.691  14.120   3.538 -0.2750 -0.0720 -0.0579
    1DPPC   C4B19968  17.867  14.090   3.943 -0.0394 -0.1894  0.3393
    1DPPC   NC319969  13.165  11.096   2.211 -0.1355 -0.1710  0.1785
    1DPPC   PO419970  13.143  11.114   2.667  0.0402 -0.0042 -0.2387
    1DPPC   GL119971  13.283  11.393   2.988  0.0047 -0.0169 -0.2836
    1DPPC   GL219972  13.582  11.360   3.171 -0.0447 -0.2212  0.1842
    1DPPC   C1A19973  13.373  11.798   3.298 -0.0163  0.3887  0.1077
    1DPPC   C2A19974  13.370  11.966   3.705 -0.0048  0.2988  0.4292
    1DPPC   C3A19975  13.284  12.019   4.120 -0.1371 -0.0853 -0.0364
    1DPPC   C4A19976  13.465  12.152   4.367  0.1107  0.0522  0.2791
    1DPPC   C1B19977  13.606  11.521   3.659  0.0275  0.0832  0.1109
    1DPPC   C2B19978  13.592  11.667   4.059  0.1936  0.0080  0.0247
    1DPPC   C3B19979  13.703  11.675   4.476  0.1164 -0.3126  0.1153
    1DPPC   C4B19980  13.721  11.711   4.844 -0.0021 -0.1716  0.0212
    1DPPC   NC319981  21.047  17.373   2.266  0.0387  0.0654  0.1899
    1DPPC   PO419982  20.904  17.698   2.463 -0.0080  0.1174 -0.1068
    1DPPC   GL119983  20.811  17.858   2.796  0.1128  0.3574 -0.0999
    1DPPC   GL219984  20.498  17.738   2.986 -0.0994 -0.0457 -0.1062
    1DPPC   C1A19985  20.943  17.987   3.277  0.0122  0.3172  0.0793
    1DPPC   C2A19986  21.025  18.134   3.627 -0.0665  0.3539  0.1056
    1DPPC   C3A19987  21.125  18.277   3.951 -0.0104  0.2796 -0.3824
    1DPPC   C4A19988  21.258  18.459   4.351  0.0593 -0.3255  0.0214
    1DPPC   C1B19989  20.541  17.869   3.453 -0.0310  0.0396 -0.0538
    1DPPC   C2B19990  20.652  17.906   3.846 -0.0512  0.0684  0.0155
    1DPPC   C3B19991  20.854  17.770   4.248  0.1954  0.2921 -0.1146
    1DPPC   C4B19992  21.147  17.933   4.550  0.0443 -0.3951 -0.1628
    1DPPC   NC319993  13.678  17.598   2.539  0.1972 -0.1858 -0.0938
    1DPPC   PO419994  13.843  17.127   2.286 -0.1235 -0.0917 -0.0479
    1DPPC   GL119995  13.964  17.110   2.700 -0.3944 -0.0644  0.1404
    1DPPC   GL219996  13.839  16.779   2.767  0.2179  0.0126 -0.2151
    1DPPC   C1A19997  14.104  17.108   3.148  0.0794 -0.0439  0.1047
    1DPPC   C2A19998  14.021  17.062   3.577 -0.1700  0.0683  0.0573
    1DPPC   C3A19999  14.008  17.053   4.090 -0.1223 -0.0808 -0.1433
    1DPPC   C4A20000  14.208  17.045   4.439 -0.2974  0.1538 -0.2199
    1DPPC   C1B20001  14.062  16.602   3.015 -0.4740 -0.0357  0.2124
    1DPPC   C2B20002  14.409  16.640   3.319 -0.4313  0.0167 -0.4439
    1DPPC   C3B20003  14.293  16.719   3.821 -0.4036  0.3717 -0.3229
    1DPPC   C4B20004  14.322  16.610   4.204  0.0559  0.0225 -0.1770
    1DPPC   NC320005  16.742  19.480   2.274 -0.0231  0.2247  0.0215
    1DPPC   PO420006  16.886  19.872   2.415  0.2332  0.1483  0.1231
    1DPPC   GL120007  17.089  19.836   2.832 -0.4629 -0.2552 -0.4682
    1DPPC   GL220008  17.371  20.046   2.857 -0.0053 -0.1087 -0.1297
    1DPPC   C1A20009  17.063  19.783   3.213  0.2217  0.1835 -0.0457
    1DPPC   C2A20010  17.201  19.723   3.491 -0.2129  0.1832  0.0338
    1DPPC   C3A20011  17.150  19.740   3.877  0.1015 -0.0056  0.0456
    1DPPC   C4A20012  17.066  19.794   4.250 -0.0500  0.1768  0.1299
    1DPPC   C1B20013  17.346  20.238   3.271 -0.2558 -0.0878 -0.2475
    1DPPC   C2B20014  17.358  20.171   3.691 -0.0067 -0.1806 -0.1130
    1DPPC   C3B20015  17.311  20.157   4.035  0.2466 -0.1563 -0.1605
    1DPPC   C4B20016  17.249  20.149   4.531  0.1320 -0.0699  0.2273
    1DPPC   NC320017  26.343  21.470   2.017 -0.0909 -0.1667  0.1734
    1DPPC   PO420018  26.630  21.579   2.473 -0.2354 -0.1523  0.1181
    1DPPC   GL120019  26.678  21.770   2.882 -0.0796  0.2688  0.0547
    1DPPC   GL220020  26.471  21.932   3.099 -0.0844 -0.2687  0.0059
    1DPPC   C1A20021  26.856  21.785   3.353  0.1554  0.1396  0.2196
    1DPPC   C2A20022  26.800  21.805   3.793  0.1373  0.1668 -0.0701
    1DPPC   C3A20023  27.079  21.749   4.113 -0.0092  0.0641  0.0412
    1DPPC   C4A20024  27.274  21.431   4.340  0.0638  0.1465  0.1103
    1DPPC   C1B20025  26.474  21.467   3.237  0.0565  0.1344 -0.0674
    1DPPC   C2B20026  26.425  21.317   3.633 -0.1010  0.1415  0.2073
    1DPPC   C3B20027  26.380  21.118   4.059  0.1107 -0.2110 -0.0781
    1DPPC   C4B20028  26.247  20.929   4.408  0.0030 -0.0769 -0.3665
    1DPPC   NC320029  15.013   8.293   3.228 -0.0976 -0.2748 -0.1853
    1DPPC   PO420030  15.083   7.881   3.509 -0.2592  0.0314 -0.2102
    1DPPC   GL120031  14.998   7.724   3.837  0.0805  0.2354  0.0042
    1DPPC   GL220032  14.639   7.694   4.001  0.2534 -0.1608  0.0538
    1DPPC   C1A20033  15.147   7.637   4.234  0.0060  0.0572 -0.4077
    1DPPC   C2A20034  15.357   7.712   4.641  0.0831 -0.2371 -0.1534
    1DPPC   C3A20035  15.428   7.588   5.180  0.4056 -0.3992 -0.1811
    1DPPC   C4A20036  15.552   7.330   5.463 -0.0170 -0.0262 -0.2465
    1DPPC   C1B20037  14.735   7.938   4.377  0.2432 -0.0503  0.0791
    1DPPC   C2B20038  14.731   8.238   4.729  0.0715  0.2585  0.3740
    1DPPC   C3B20039  14.723   8.650   5.066  0.0612 -0.1113  0.0496
    1DPPC   C4B20040  14.667   9.093   4.985 -0.2141 -0.1227 -0.1034
    1DPPC   NC320041  14.174   8.104   3.649 -0.0445  0.0408  0.1682
    1DPPC   PO420042  13.806   8.332   3.439  0.1587  0.3829  0.0690
    1DPPC   GL120043  14.096   8.650   3.609 -0.3224 -0.0867 -0.1594
    1DPPC   GL220044  14.245   8.550   3.818 -0.4332  0.0072 -0.1777
    1DPPC   C1A20045  13.941   8.969   3.857 -0.0819 -0.0047 -0.0885
    1DPPC   C2A20046  13.876   9.116   4.195  0.0301 -0.0878  0.2642
    1DPPC   C3A20047  14.042   9.144   4.578 -0.1523  0.3266 -0.2287
    1DPPC   C4A20048  13.923   9.362   5.017  0.0489  0.0679  0.1095
    1DPPC   C1B20049  14.273   8.774   4.233  0.0945  0.2487 -0.3136
    1DPPC   C2B20050  14.386   8.802   4.646  0.1628  0.0328 -0.0476
    1DPPC   C3B20051  14.178   8.871   5.042  0.2556  0.0353 -0.0474
    1DPPC   C4B20052  13.988   9.050   5.429  0.2387 -0.1748 -0.1895
    1DPPC   NC320053  20.367  17.735   2.493 -0.0432  0.2136 -0.3256
    1DPPC   PO420054  20.569  17.268   2.327  0.0307 -0.1071  0.1586
    1DPPC   GL120055  20.592  17.302   2.800 -0.2015 -0.1480  0.1464
    1DPPC   GL220056  20.885  17.350   2.822  0.1988  0.0577  0.0308
    1DPPC   C1A20057  20.549  17.256   3.213 -0.0986 -0.1606  0.0410
    1DPPC   C2A20058  20.683  17.358   3.541  0.0172 -0.0535 -0.1306
    1DPPC   C3A20059  20.633  17.347   3.887 -0.1662  0.1201 -0.0163
    1DPPC   C4A20060  20.697  17.052   4.169 -0.1958 -0.0844  0.2778
    1DPPC   C1B20061  20.981  17.486   3.178  0.1896 -0.0206 -0.0682
    1DPPC   C2B20062  21.130  17.575   3.547  0.1665  0.0228  0.2678
    1DPPC   C3B20063  21.191  17.667   3.881  0.2583  0.2626 -0.1938
    1DPPC   C4B20064  21.388  17.905   4.188 -0.2232 -0.3842  0.2892
    1DIPC   NC320065  17.849   4.813   3.643  0.1196  0.0940 -0.1741
    1DIPC   PO420066  18.212   4.885   3.751  0.1317  0.2190 -0.1330
    1DIPC   GL120067  17.966   5.036   4.109 -0.0425 -0.0667 -0.0418
    1DIPC   GL220068  17.613   4.865   4.142 -0.0690 -0.1214 -0.2521
    1DIPC   C1A20069  18.056   4.879   4.407  0.0615  0.2125 -0.1886
    1DIPC   D2A20070  17.947   4.636   4.814 -0.0724  0.0043 -0.0635
    1DIPC   D3A20071  18.347   4.379   5.009  0.1758  0.0274  0.0245
    1DIPC   C4A20072  18.252   4.159   5.454  0.3122  0.0177 -0.2006
    1DIPC   C1B20073  17.552   4.907   4.614 -0.1496  0.0057  0.2463
    1DIPC   D2B20074  17.368   4.546   4.755  0.1988 -0.3889  0.1107
    1DIPC   D3B20075  17.382   4.184   4.376 -0.1170 -0.0018  0.3930
    1DIPC   C4B20076  17.279   4.259   4.036  0.0961  0.0889 -0.0270
    1DIPC   NC320077  24.968  26.821   2.977  0.0916  0.0839  0.5498
    1DIPC   PO420078  25.099  26.394   3.029  0.1662  0.2245 -0.0187
    1DIPC   GL120079  24.982  26.484   3.392 -0.1457  0.1429  0.1735
    1DIPC   GL220080  25.130  26.372   3.628  0.0110  0.0258 -0.1900
    1DIPC   C1A20081  24.681  26.537   3.692  0.1390 -0.0173  0.3866
    1DIPC   D2A20082  24.484  26.380   4.062 -0.3702 -0.1800  0.1675
    1DIPC   D3A20083  24.177  26.535   4.159  0.0912  0.2988  0.0140
    1DIPC   C4A20084  24.157  26.900   4.076  0.0730  0.0394  0.1533
    1DIPC   C1B20085  25.333  26.315   4.093 -0.3980 -0.3931  0.0631
    1DIPC   D2B20086  25.285  26.293   4.484  0.1864  0.1013  0.0064
    1DIPC   D3B20087  25.401  25.732   4.472  0.0265  0.0711 -0.0442
    1DIPC   C4B20088  25.085  25.557   4.153  0.1379  0.1689 -0.0829
    1DIPC   NC320089  16.404  24.092   2.446  0.1986 -0.0359  0.1441
    1DIPC   PO420090  16.427  24.080   2.941  0.1624 -0.3216 -0.1660
    1DIPC   GL120091  16.324  23.961   3.395  0.1142 -0.1349  0.0337
    1DIPC   GL220092  16.199  24.221   3.630  0.1551  0.2455 -0.6440
    1DIPC   C1A20093  16.391  23.807   3.829 -0.2842 -0.1239  0.0304
    1DIPC   D2A20094  16.497  23.900   4.224  0.3401  0.1260  0.1378
    1DIPC   D3A20095  16.662  23.938   4.538  0.0845  0.1338  0.1294
    1DIPC   C4A20096  16.643  24.310   4.782 -0.2093  0.2197 -0.0776
    1DIPC   C1B20097  15.864  24.125   3.858 -0.0981  0.0772  0.1558
    1DIPC   D2B20098  15.963  23.977   4.212  0.0311  0.2194  0.0477
    1DIPC   D3B20099  15.716  23.817   4.503  0.2913  0.0058 -0.3359
    1DIPC   C4B20100  15.382  24.001   4.795 -0.2154  0.2016 -0.0931
    1DIPC   NC320101  29.617   2.734   2.733  0.1909 -0.0456 -0.2959
    1DIPC   PO420102  29.506   3.179   2.758 -0.0361 -0.2570 -0.0126
    1DIPC   GL120103  29.580   3.168   3.189  0.0125  0.2071  0.1517
    1DIPC   GL220104  29.405   3.365   3.324 -0.0879  0.3216 -0.0001
    1DIPC   C1A20105  29.502   2.836   3.366  0.1477  0.3606  0.3019
    1DIPC   D2A20106  29.296   2.704   3.723  0.1737  0.1439  0.0143
    1DIPC   D3A20107  29.462   2.517   4.148 -0.1324 -0.2241  0.0063
    1DIPC   C4A20108  29.259   2.557   4.487 -0.0056 -0.1330  0.0428
    1DIPC   C1B20109  29.284   3.541   3.667 -0.2063  0.1906 -0.0482
    1DIPC   D2B20110  29.185   3.806   3.974  0.1925  0.1105  0.2469
    1DIPC   D3B20111  29.468   3.563   4.218 -0.0411 -0.0546  0.1104
    1DIPC   C4B20112  29.438   3.147   4.052  0.0968  0.0269  0.4013
    1DIPC   NC320113   4.925  13.561   2.928  0.1301 -0.1258 -0.1014
    1DIPC   PO420114   4.964  13.128   2.817  0.0219 -0.3693  0.1900
    1DIPC   GL120115   4.706  13.167   3.149 -0.2121  0.1151 -0.0189
    1DIPC   GL220116   4.481  13.425   3.076 -0.0545  0.2250 -0.1689
    1DIPC   C1A20117   4.552  13.185   3.502  0.0627  0.2015  0.0779
    1DIPC   D2A20118   4.464  13.056   3.864  0.0536  0.1588 -0.3544
    1DIPC   D3A20119   4.171  13.194   3.956 -0.0296 -0.0527  0.1783
    1DIPC   C4A20120   4.129  13.515   3.632 -0.2665  0.1003  0.0888
    1DIPC   C1B20121   4.520  13.786   3.415 -0.3240  0.2895 -0.2948
    1DIPC   D2B20122   4.402  14.040   3.596 -0.0863 -0.1392 -0.0265
    1DIPC   D3B20123   4.559  14.041   3.904  0.0022  0.1408 -0.0037
    1DIPC   C4B20124   4.320  14.338   4.221  0.4291 -0.2432  0.2336
    1DIPC   NC320125  28.443  29.499   2.500 -0.0216  0.2916 -0.2088
    1DIPC   PO420126  28.501  29.958   2.811  0.1562  0.1797 -0.0645
    1DIPC   GL120127  28.460  29.639   3.075  0.2359 -0.0065  0.1588
    1DIPC   GL220128  28.246  29.871   3.290  0.2479 -0.0645 -0.2078
    1DIPC   C1A20129  28.582  29.239   3.332 -0.0609  0.0881 -0.0886
    1DIPC   D2A20130  28.255  28.998   3.339 -0.0963  0.2104 -0.0681
    1DIPC   D3A20131  27.930  29.049   3.591 -0.1424 -0.0743 -0.0488
    1DIPC   C4A20132  27.945  28.835   3.953 -0.3097  0.0502 -0.1571
    1DIPC   C1B20133  28.275  29.534   3.593  0.0435 -0.0692  0.3533
    1DIPC   D2B20134  28.343  29.378   4.041  0.0240 -0.3328  0.1061
    1DIPC   D3B20135  28.602  29.624   4.164 -0.1499  0.0320  0.1370
    1DIPC   C4B20136  28.418  29.960   4.402  0.4436 -0.0783  0.0014
    1DIPC   NC320137  18.647   7.746   2.848 -0.1068  0.1620  0.0062
    1DIPC   PO420138  19.132   7.683   2.950  0.0586 -0.1091  0.1346
    1DIPC   GL120139  19.317   7.892   3.213  0.0257 -0.0241 -0.0862
    1DIPC   GL220140  19.586   7.896   3.318 -0.0621  0.0500 -0.2923
    1DIPC   C1A20141  19.037   8.133   3.553 -0.2047  0.3194 -0.2017
    1DIPC   D2A20142  19.033   8.045   4.045 -0.3198 -0.0853  0.2028
    1DIPC   D3A20143  19.345   7.966   4.453  0.0466 -0.1646  0.0285
    1DIPC   C4A20144  19.419   7.489   4.496  0.0307 -0.2725  0.1050
    1DIPC   C1B20145  19.354   7.610   3.608  0.3688  0.0972  0.1551
    1DIPC   D2B20146  19.129   7.522   4.052  0.1623  0.0074  0.1582
    1DIPC   D3B20147  19.427   7.232   3.997 -0.0150  0.0751  0.0451
    1DIPC   C4B20148  19.291   6.745   3.861  0.1208 -0.1464  0.0441
    1DIPC   NC320149   0.343  10.971   2.370  0.0834  0.2659  0.2070
    1DIPC   PO420150  -0.014  10.673   2.408  0.2371 -0.1995 -0.2124
    1DIPC   GL120151  -0.001  10.789   2.810  0.0132 -0.0105 -0.1911
    1DIPC   GL220152   0.237  10.717   3.095 -0.5148  0.1269 -0.2566
    1DIPC   C1A20153  -0.147  11.050   3.150 -0.2322 -0.3522 -0.0889
    1DIPC   D2A20154  -0.403  10.994   3.515  0.0584  0.1033  0.0632
    1DIPC   D3A20155  -0.342  11.103   3.880  0.2484 -0.1156  0.1667
    1DIPC   C4A20156   0.031  10.874   3.992  0.0677 -0.0077  0.3107
    1DIPC   C1B20157   0.323  10.921   3.476 -0.0811 -0.0413 -0.2088
    1DIPC   D2B20158   0.607  10.897   3.896  0.1920 -0.2107  0.4090
    1DIPC   D3B20159   0.761  10.440   3.780  0.0088  0.2238 -0.2175
    1DIPC   C4B20160   0.613  10.159   4.087 -0.1468 -0.0768  0.4031
    1DIPC   NC320161  27.698  18.946   2.050 -0.0336 -0.2171  0.0511
    1DIPC   PO420162  27.399  19.099   1.797 -0.1104 -0.0290  0.0901
    1DIPC   GL120163  27.150  18.949   2.234 -0.1717  0.0430 -0.3921
    1DIPC   GL220164  26.965  18.706   2.283  0.1130  0.0529  0.1488
    1DIPC   C1A20165  27.149  19.088   2.734 -0.0197  0.1433 -0.0133
    1DIPC   D2A20166  27.340  19.315   2.923  0.1723 -0.0821 -0.1543
    1DIPC   D3A20167  27.699  19.239   2.938 -0.1623  0.0560  0.2614
    1DIPC   C4A20168  27.846  19.202   3.299  0.1599  0.1919 -0.0461
    1DIPC   C1B20169  27.289  18.577   2.614 -0.0065  0.0033  0.2400
    1DIPC   D2B20170  27.438  18.770   3.002 -0.3639 -0.0251  0.1688
    1DIPC   D3B20171  27.023  18.648   3.153 -0.1593  0.1453  0.1913
    1DIPC   C4B20172  26.777  18.946   3.233 -0.3272 -0.3673 -0.0693
    1DIPC   NC320173  12.944  28.753   3.565 -0.1211  0.1515 -0.4181
    1DIPC   PO420174  13.052  29.128   3.661 -0.0907 -0.1091 -0.0088
    1DIPC   GL120175  13.230  29.051   4.082  0.2220  0.1910  0.2063
    1DIPC   GL220176  13.258  29.346   4.290 -0.0958 -0.4300  0.3223
    1DIPC   C1A20177  13.427  28.743   4.336  0.0121  0.0111 -0.0486
    1DIPC   D2A20178  13.811  28.684   4.528  0.0658 -0.1732  0.0571
    1DIPC   D3A20179  13.515  28.346   4.669 -0.3842  0.0556  0.1162
    1DIPC   C4A20180  13.289  28.205   4.309  0.0526 -0.1334 -0.0505
    1DIPC   C1B20181  13.269  29.687   4.604  0.1230  0.0617  0.2613
    1DIPC   D2B20182  13.086  29.875   4.928 -0.0487 -0.1459  0.1676
    1DIPC   D3B20183  13.326  29.535   5.070  0.0407 -0.0726  0.1237
    1DIPC   C4B20184  13.350  29.106   5.163  0.1737 -0.0378 -0.2172
    1DIPC   NC320185   2.478  26.350   2.484 -0.2410  0.1128  0.2414
    1DIPC   PO420186   2.482  26.615   2.725 -0.1226 -0.1118  0.0120
    1DIPC   GL120187   2.707  26.262   3.033  0.2074 -0.2242  0.0940
    1DIPC   GL220188   2.860  26.116   2.876  0.3060  0.2147  0.0278
    1DIPC   C1A20189   2.814  26.215   3.497  0.0266 -0.0345 -0.0078
    1DIPC   D2A20190   2.837  25.755   3.716  0.2400 -0.0178  0.0886
    1DIPC   D3A20191   2.960  25.779   4.174 -0.1283  0.1178  0.2954
    1DIPC   C4A20192   2.882  25.468   4.445 -0.2452  0.2053  0.0772
    1DIPC   C1B20193   2.794  25.823   3.229  0.1554  0.0225  0.4192
    1DIPC   D2B20194   3.082  25.402   3.368  0.1408 -0.1682  0.0139
    1DIPC   D3B20195   2.962  25.218   3.798  0.0329  0.3462  0.1718
    1DIPC   C4B20196   3.223  25.162   4.092  0.0852 -0.0820  0.0587
    1DIPC   NC320197  27.478  13.483   1.905  0.0550 -0.6002 -0.1153
    1DIPC   PO420198  27.967  13.371   1.975  0.3011 -0.1591  0.1411
    1DIPC   GL120199  27.965  13.091   2.359 -0.1518 -0.0654  0.2232
    1DIPC   GL220200  28.093  13.412   2.442  0.2785  0.0103  0.0282
    1DIPC   C1A20201  28.032  13.068   2.834  0.0094  0.0549  0.0154
    1DIPC   D2A20202  27.777  13.203   3.145 -0.0808  0.1114 -0.2076
    1DIPC   D3A20203  27.901  12.722   3.321 -0.1646 -0.1285  0.0590
    1DIPC   C4A20204  27.792  12.552   3.732 -0.1236  0.0178 -0.3265
    1DIPC   C1B20205  28.473  13.218   2.631  0.0473  0.1005 -0.1820
    1DIPC   D2B20206  28.823  13.313   2.776  0.2120 -0.1788 -0.4655
    1DIPC   D3B20207  28.934  13.185   3.057 -0.1606  0.1067 -0.0531
    1DIPC   C4B20208  29.389  13.360   3.012 -0.1031  0.1560 -0.2609
    1DIPC   NC320209  15.132  30.047   3.386  0.1188  0.0889 -0.0045
    1DIPC   PO420210  14.897  30.080   3.720  0.0185 -0.0078 -0.2056
    1DIPC   GL120211  14.664  30.070   4.167 -0.1242 -0.3611  0.2965
    1DIPC   GL220212  14.946  30.173   4.287 -0.3201 -0.0479  0.1481
    1DIPC   C1A20213  14.443  29.979   4.480 -0.1931 -0.1245 -0.0141
    1DIPC   D2A20214  14.597  29.879   4.989 -0.0612 -0.1314 -0.2328
    1DIPC   D3A20215  14.364  30.297   4.880 -0.2092 -0.0124 -0.2082
    1DIPC   C4A20216  14.342  30.537   5.252  0.1848  0.1210  0.0611
    1DIPC   C1B20217  14.836  30.349   4.637  0.3629  0.0072 -0.1517
    1DIPC   D2B20218  14.882  30.293   5.057 -0.0051 -0.1473 -0.2599
    1DIPC   D3B20219  14.860  30.717   5.174  0.1070 -0.2188  0.1080
    1DIPC   C4B20220  14.485  30.985   5.242  0.1017  0.1870  0.2465
    1DIPC   NC320221   0.020  28.488   3.634  0.1284  0.0782  0.1874
    1DIPC   PO420222  -0.048  28.893   3.617  0.3803 -0.0901 -0.0291
    1DIPC   GL120223  -0.133  28.728   4.085  0.0217 -0.1265  0.2748
    1DIPC   GL220224  -0.382  28.917   4.110 -0.0031  0.0637  0.0033
    1DIPC   C1A20225  -0.170  28.430   4.444  0.1969  0.1063  0.0214
    1DIPC   D2A20226  -0.263  28.232   4.894 -0.0855  0.1887 -0.2641
    1DIPC   D3A20227  -0.146  28.330   5.241  0.0086 -0.1760 -0.3855
    1DIPC   C4A20228  -0.068  28.797   5.408 -0.2374  0.3486 -0.0368
    1DIPC   C1B20229  -0.440  28.823   4.543 -0.4489 -0.0959 -0.0321
    1DIPC   D2B20230  -0.126  28.811   4.830 -0.1177 -0.0275  0.1256
    1DIPC   D3B20231  -0.411  29.127   5.100  0.3541  0.2981 -0.0383
    1DIPC   C4B20232  -0.521  29.515   5.005 -0.4030  0.0760  0.1540
    1DIPC   NC320233  27.920  30.016   2.891 -0.1616 -0.1379 -0.0964
    1DIPC   PO420234  27.946  29.497   2.832 -0.2398 -0.2181  0.1320
    1DIPC   GL120235  27.825  29.526   3.274  0.2638 -0.0380  0.0159
    1DIPC   GL220236  27.727  29.828   3.386 -0.1872  0.1456  0.2355
    1DIPC   C1A20237  27.787  29.482   3.772 -0.3078 -0.0105  0.0037
    1DIPC   D2A20238  27.784  29.370   4.121  0.1560 -0.0564  0.0324
    1DIPC   D3A20239  28.014  29.691   4.286 -0.0981 -0.3695  0.2494
    1DIPC   C4A20240  27.914  29.827   4.748 -0.1594 -0.0998  0.0885
    1DIPC   C1B20241  27.335  29.805   3.715  0.1084  0.1452 -0.0149
    1DIPC   D2B20242  27.250  29.662   4.126 -0.1350  0.0214 -0.0723
    1DIPC   D3B20243  27.510  29.549   4.547  0.4996  0.0361 -0.0866
    1DIPC   C4B20244  27.172  29.401   4.838  0.2645 -0.1653 -0.1251
    1DIPC   NC320245   2.511   4.711   3.259 -0.6225 -0.2445  0.0166
    1DIPC   PO420246   2.021   4.757   3.256 -0.0774  0.1018  0.1288
    1DIPC   GL120247   2.139   4.871   3.666  0.1468  0.1581 -0.0173
    1DIPC   GL220248   1.970   5.091   3.702  0.1421  0.0032  0.1839
    1DIPC   C1A20249   2.426   4.835   4.093  0.0202  0.0491 -0.0994
    1DIPC   D2A20250   2.289   4.682   4.515  0.3059 -0.2944  0.2427
    1DIPC   D3A20251   2.537   4.915   4.665  0.1058  0.0319 -0.1138
    1DIPC   C4A20252   2.619   5.277   4.428 -0.0089 -0.0497  0.0396
    1DIPC   C1B20253   1.602   5.174   3.925  0.0811  0.2416  0.0217
    1DIPC   D2B20254   1.501   5.360   4.390  0.1200  0.2123  0.1515
    1DIPC   D3B20255   1.629   5.011   4.526 -0.1538 -0.5330 -0.1134
    1DIPC   C4B20256   1.718   5.100   4.914  0.1018  0.0132 -0.0697
    1DIPC   NC320257   8.115   4.122   2.849  0.0142 -0.1430  0.1725
    1DIPC   PO420258   8.490   4.174   3.037 -0.1726 -0.1037 -0.0182
    1DIPC   GL120259   8.231   4.123   3.382  0.2322 -0.0919 -0.2496
    1DIPC   GL220260   8.280   4.418   3.571  0.1138 -0.1604  0.0708
    1DIPC   C1A20261   7.842   4.068   3.755 -0.1050 -0.0871 -0.0899
    1DIPC   D2A20262   7.491   4.168   4.025 -0.1501  0.0523  0.1610
    1DIPC   D3A20263   7.681   4.207   4.431  0.4272 -0.4474  0.1428
    1DIPC   C4A20264   7.955   4.483   4.527  0.1816  0.2855 -0.4368
    1DIPC   C1B20265   8.250   4.456   4.067  0.0799  0.0469  0.0215
    1DIPC   D2B20266   8.342   4.701   4.361  0.1417  0.0039 -0.1968
    1DIPC   D3B20267   8.356   4.605   4.773  0.0428 -0.0424  0.0611
    1DIPC   C4B20268   8.502   4.681   5.130 -0.0795 -0.0478  0.4669
    1DIPC   NC320269  26.995   7.205   1.933  0.3277 -0.2394 -0.0721
    1DIPC   PO420270  26.745   7.204   2.248 -0.0201 -0.0048 -0.1958
    1DIPC   GL120271  26.972   7.295   2.619  0.2038  0.2004 -0.1463
    1DIPC   GL220272  26.704   7.575   2.692  0.1163 -0.0322 -0.1971
    1DIPC   C1A20273  27.137   7.316   3.008 -0.1570  0.0505 -0.0546
    1DIPC   D2A20274  26.848   7.414   3.465 -0.0079 -0.0144 -0.0996
    1DIPC   D3A20275  26.683   7.218   3.223 -0.1450 -0.1831 -0.3396
    1DIPC   C4A20276  26.878   6.896   3.157 -0.1034 -0.0700  0.0219
    1DIPC   C1B20277  26.337   7.760   2.778  0.1881  0.1017 -0.1574
    1DIPC   D2B20278  26.193   7.893   3.222 -0.2377  0.0410 -0.0036
    1DIPC   D3B20279  26.406   8.295   3.403 -0.1663 -0.0630  0.3304
    1DIPC   C4B20280  26.588   8.508   3.711 -0.1078 -0.2990  0.0940
    1DIPC   NC320281   7.959  18.465   2.852 -0.2858  0.1840  0.3149
    1DIPC   PO420282   8.404  18.337   2.914  0.0899 -0.1078 -0.1950
    1DIPC   GL120283   8.252  18.398   3.280 -0.0430 -0.1479 -0.2046
    1DIPC   GL220284   7.872  18.555   3.349  0.0688  0.0422 -0.0126
    1DIPC   C1A20285   8.211  18.355   3.696 -0.2835  0.0239  0.1596
    1DIPC   D2A20286   7.822  18.535   3.898 -0.1124 -0.0392 -0.0138
    1DIPC   D3A20287   7.904  18.599   4.342 -0.6538  0.2134 -0.2847
    1DIPC   C4A20288   7.789  18.222   4.625  0.0003  0.3159 -0.3405
    1DIPC   C1B20289   7.544  18.792   3.576 -0.1745 -0.1333 -0.2293
    1DIPC   D2B20290   7.342  18.814   4.002  0.0401  0.0978  0.2876
    1DIPC   D3B20291   7.404  18.359   4.221 -0.0329 -0.0249 -0.0052
    1DIPC   C4B20292   7.066  17.995   4.048  0.1265 -0.1395  0.1380
    1DIPC   NC320293  11.376  25.439   2.509  0.1403  0.1742  0.3004
    1DIPC   PO420294  10.902  25.471   2.503 -0.0038  0.2828  0.0471
    1DIPC   GL120295  10.682  25.694   2.855 -0.0197  0.0604 -0.0076
    1DIPC   GL220296  10.850  25.565   3.209  0.0950 -0.1992  0.1601
    1DIPC   C1A20297  10.397  25.663   3.231 -0.2268  0.2018 -0.1502
    1DIPC   D2A20298  10.146  25.834   3.586 -0.0822 -0.0251  0.0377
    1DIPC   D3A20299  10.428  25.838   4.051  0.1115 -0.1111  0.0142
    1DIPC   C4A20300  10.558  26.199   4.273 -0.3905  0.0290 -0.0661
    1DIPC   C1B20301  11.191  25.534   3.539  0.2698  0.1184 -0.0486
    1DIPC   D2B20302  11.338  25.207   3.788  0.1837 -0.3025  0.0230
    1DIPC   D3B20303  11.250  25.111   4.242 -0.1817 -0.1789  0.1525
    1DIPC   C4B20304  11.139  24.822   4.584 -0.1479  0.0950 -0.2833
    1DIPC   NC320305   9.944  28.351   2.992 -0.0506 -0.1702  0.1119
    1DIPC   PO420306   9.751  27.889   2.889  0.0750  0.2914 -0.1735
    1DIPC   GL120307   9.818  27.670   3.222 -0.1525  0.0258 -0.0346
    1DIPC   GL220308   9.669  27.684   3.521  0.0440 -0.3255 -0.2031
    1DIPC   C1A20309  10.231  27.690   3.499  0.0922  0.6141 -0.2452
    1DIPC   D2A20310  10.523  27.696   3.762  0.0044  0.0355 -0.3507
    1DIPC   D3A20311  10.428  28.074   3.689 -0.0548  0.0186 -0.0013
    1DIPC   C4A20312  10.669  28.419   3.758  0.0903 -0.0673 -0.0413
    1DIPC   C1B20313   9.497  27.610   3.957 -0.0688  0.0688 -0.1384
    1DIPC   D2B20314   9.327  27.355   4.273 -0.0228  0.6305 -0.0375
    1DIPC   D3B20315   8.991  27.501   3.997  0.0789  0.0309  0.1587
    1DIPC   C4B20316   8.933  28.017   3.915 -0.3590 -0.1216 -0.1903
    1DIPC   NC320317   9.981   0.505   3.740 -0.2275  0.0685 -0.0633
    1DIPC   PO420318   9.917   0.032   3.790  0.0087  0.2895 -0.2718
    1DIPC   GL120319   9.710  -0.452   3.910 -0.3097  0.0357  0.1736
    1DIPC   GL220320  10.015  -0.733   3.945  0.0425 -0.0368 -0.1313
    1DIPC   C1A20321   9.551  -0.764   4.144 -0.1323 -0.0138 -0.0819
    1DIPC   D2A20322   9.277  -1.191   4.160 -0.0741  0.0057 -0.1228
    1DIPC   D3A20323   9.142  -1.443   4.482 -0.2895 -0.1181  0.0256
    1DIPC   C4A20324   9.392  -1.319   4.891 -0.2479 -0.3647  0.0860
    1DIPC   C1B20325   9.984  -0.553   4.415 -0.0250  0.1928  0.0511
    1DIPC   D2B20326   9.681  -0.440   4.662  0.2220  0.0459  0.0490
    1DIPC   D3B20327  10.175  -0.389   4.904 -0.2398 -0.0874 -0.1773
    1DIPC   C4B20328  10.262  -0.823   5.152  0.1085 -0.0241  0.3184
    1DIPC   NC320329  11.465   3.098   3.981  0.0228 -0.0310 -0.3323
    1DIPC   PO420330  11.358   3.463   3.912 -0.0547  0.1116 -0.0372
    1DIPC   GL120331  11.580   3.362   4.351 -0.2728 -0.0472  0.1664
    1DIPC   GL220332  11.744   3.261   4.521 -0.0641 -0.1105  0.3767
    1DIPC   C1A20333  11.293   3.522   4.660 -0.2568 -0.0461  0.0943
    1DIPC   D2A20334  11.051   3.184   4.946 -0.1322 -0.1563  0.1114
    1DIPC   D3A20335  10.690   3.180   4.794 -0.0580  0.0261 -0.1269
    1DIPC   C4A20336  10.277   2.937   4.951 -0.0119 -0.2711  0.0222
    1DIPC   C1B20337  11.807   3.450   4.879 -0.1889  0.2286 -0.1414
    1DIPC   D2B20338  11.764   3.851   5.031 -0.0230  0.0053  0.0561
    1DIPC   D3B20339  11.718   3.682   5.429 -0.1446 -0.0235  0.3190
    1DIPC   C4B20340  11.953   3.974   5.779  0.0714 -0.1944 -0.0308
    1DIPC   NC320341  25.671  21.442   1.936 -0.1006 -0.1565  0.3760
    1DIPC   PO420342  25.941  21.117   1.975  0.1187  0.3467  0.2872
    1DIPC   GL120343  26.086  20.973   2.308 -0.1418 -0.2873  0.0454
    1DIPC   GL220344  26.313  21.147   2.394 -0.1214 -0.0412  0.0027
    1DIPC   C1A20345  26.185  20.704   2.645 -0.2022 -0.0876  0.1072
    1DIPC   D2A20346  26.298  20.632   3.062 -0.1351  0.3860  0.1695
    1DIPC   D3A20347  26.458  20.837   3.430  0.0055 -0.0085 -0.0225
    1DIPC   C4A20348  26.450  20.641   3.902 -0.1567 -0.1671  0.1775
    1DIPC   C1B20349  26.156  21.176   2.769  0.0840 -0.0450  0.1295
    1DIPC   D2B20350  26.067  21.138   3.189  0.0345  0.0668  0.1115
    1DIPC   D3B20351  26.034  21.068   3.753  0.1565  0.1696 -0.2269
    1DIPC   C4B20352  25.881  20.690   3.974 -0.1463  0.0591  0.1877
    1DIPC   NC320353   8.249  13.380   2.818  0.2470  0.6063 -0.1606
    1DIPC   PO420354   7.933  13.547   2.493  0.3323  0.1307  0.1527
    1DIPC   GL120355   7.969  13.808   2.934 -0.0706  0.1752 -0.1260
    1DIPC   GL220356   7.656  13.956   3.119  0.2219  0.5341 -0.0014
    1DIPC   C1A20357   8.062  13.688   3.372 -0.1142  0.0171 -0.0173
    1DIPC   D2A20358   8.312  14.008   3.523 -0.1768 -0.2172 -0.0490
    1DIPC   D3A20359   8.392  14.017   3.959 -0.2745  0.0940 -0.0406
    1DIPC   C4A20360   8.154  14.200   4.195 -0.4295 -0.0863 -0.1130
    1DIPC   C1B20361   7.834  14.139   3.490  0.0396 -0.1127  0.3208
    1DIPC   D2B20362   7.767  14.175   3.842  0.1414  0.0342  0.0282
    1DIPC   D3B20363   7.939  13.691   3.998  0.2441 -0.0042  0.0431
    1DIPC   C4B20364   7.633  13.494   4.136 -0.2667  0.1377  0.0854
    1DIPC   NC320365  22.674  11.167   2.239 -0.4159  0.0505  0.4534
    1DIPC   PO420366  23.143  11.260   2.351 -0.0071 -0.0870  0.0140
    1DIPC   GL120367  23.328  11.239   2.794 -0.1724 -0.1288  0.0579
    1DIPC   GL220368  23.272  11.462   2.981  0.0371 -0.0046 -0.2560
    1DIPC   C1A20369  23.352  10.930   3.059  0.0142  0.2684  0.0491
    1DIPC   D2A20370  23.119  10.877   3.509 -0.2505  0.1743  0.0545
    1DIPC   D3A20371  23.474  10.871   3.862  0.1093 -0.0313  0.0046
    1DIPC   C4A20372  23.397  10.780   4.222  0.0912 -0.0210  0.0437
    1DIPC   C1B20373  23.291  11.543   3.391 -0.1955 -0.0124 -0.0174
    1DIPC   D2B20374  23.437  11.400   3.792 -0.1333 -0.1925 -0.1978
    1DIPC   D3B20375  23.568  11.721   4.160  0.0865  0.1258 -0.0370
    1DIPC   C4B20376  23.630  12.136   3.979  0.0482 -0.0453 -0.1735
    1DIPC   NC320377   7.249   9.431   3.153 -0.2825 -0.4762  0.0052
    1DIPC   PO420378   7.316   9.247   3.552 -0.0039  0.0657 -0.0943
    1DIPC   GL120379   7.524   9.307   3.891 -0.1577  0.0729 -0.2514
    1DIPC   GL220380   7.666   9.641   3.953 -0.1640  0.1268 -0.1089
    1DIPC   C1A20381   7.530   9.278   4.387 -0.0198 -0.3370 -0.1707
    1DIPC   D2A20382   7.417   9.225   4.762  0.1130  0.0715 -0.1178
    1DIPC   D3A20383   7.563   9.087   5.117  0.0210 -0.0450 -0.0485
    1DIPC   C4A20384   7.259   9.231   5.505 -0.1369 -0.0804 -0.1957
    1DIPC   C1B20385   7.233   9.757   4.163 -0.1317 -0.3491 -0.0274
    1DIPC   D2B20386   6.958   9.895   4.460 -0.3168 -0.1210  0.3419
    1DIPC   D3B20387   6.662   9.648   4.729 -0.0187 -0.0505  0.0606
    1DIPC   C4B20388   6.548   9.279   4.756  0.2036 -0.0528  0.0528
    1DIPC   NC320389  28.690  27.777   3.131  0.0351  0.3163  0.1244
    1DIPC   PO420390  28.595  27.458   3.044 -0.0287 -0.0929  0.0250
    1DIPC   GL120391  28.303  27.688   3.435 -0.0228 -0.2300 -0.2139
    1DIPC   GL220392  28.363  27.767   3.745  0.0489  0.2908  0.0224
    1DIPC   C1A20393  27.931  27.555   3.593  0.0312  0.0363 -0.0313
    1DIPC   D2A20394  27.579  27.695   3.785  0.1830 -0.2387 -0.3984
    1DIPC   D3A20395  27.427  28.165   3.837  0.0722 -0.2076  0.2080
    1DIPC   C4A20396  27.197  28.158   4.157  0.0916  0.0089  0.1841
    1DIPC   C1B20397  28.352  27.762   4.184  0.2466  0.1248 -0.0012
    1DIPC   D2B20398  28.358  27.570   4.503  0.0167 -0.1597  0.1713
    1DIPC   D3B20399  28.159  27.201   4.383  0.2035  0.3165 -0.1148
    1DIPC   C4B20400  27.731  27.015   4.480 -0.2182 -0.1136 -0.0679
    1DIPC   NC320401   9.826  24.037   2.274  0.2292 -0.1937  0.1986
    1DIPC   PO420402   9.856  24.389   2.557  0.1874 -0.5353 -0.0105
    1DIPC   GL120403   9.925  23.952   2.725 -0.3469 -0.0180  0.1753
    1DIPC   GL220404  10.095  23.700   2.477  0.1038 -0.4417 -0.1318
    1DIPC   C1A20405  10.304  23.802   2.862 -0.2236  0.0161 -0.1731
    1DIPC   D2A20406  10.647  24.085   3.105  0.2463 -0.0289  0.0387
    1DIPC   D3A20407  10.755  24.571   3.038  0.0063  0.1086 -0.2965
    1DIPC   C4A20408  10.831  25.029   3.400  0.0042  0.2335  0.2605
    1DIPC   C1B20409  10.452  23.411   2.574  0.4196 -0.0866 -0.0510
    1DIPC   D2B20410  10.417  22.962   2.684 -0.0520 -0.1890  0.2900
    1DIPC   D3B20411  10.841  22.997   2.902  0.0178 -0.1097  0.0448
    1DIPC   C4B20412  10.829  23.008   3.243 -0.1145 -0.3439  0.3504
    1DIPC   NC320413  24.518  24.021   2.474  0.0220 -0.0231 -0.2425
    1DIPC   PO420414  24.773  24.279   2.797  0.0411  0.1601  0.0394
    1DIPC   GL120415  24.823  24.304   3.267 -0.0325  0.1429  0.1053
    1DIPC   GL220416  25.102  24.364   3.418  0.1294 -0.3818 -0.0120
    1DIPC   C1A20417  24.854  24.115   3.661 -0.0512 -0.0400 -0.0125
    1DIPC   D2A20418  24.881  23.702   3.691 -0.2579 -0.1157 -0.0962
    1DIPC   D3A20419  25.195  23.747   3.849  0.0206 -0.0475  0.0238
    1DIPC   C4A20420  25.655  23.690   3.564 -0.0287  0.0400 -0.1392
    1DIPC   C1B20421  25.281  24.705   3.663  0.0797  0.2936 -0.1685
    1DIPC   D2B20422  25.559  24.911   4.036  0.1571 -0.1532  0.2603
    1DIPC   D3B20423  25.275  24.682   4.346 -0.2018 -0.3739  0.1681
    1DIPC   C4B20424  25.151  24.819   4.720 -0.0302 -0.1402  0.1132
    1DIPC   NC320425  24.850  23.248   2.805 -0.3775  0.0682  0.0041
    1DIPC   PO420426  24.480  23.273   3.034 -0.2069 -0.0373 -0.1978
    1DIPC   GL120427  24.326  23.472   3.281  0.2704  0.1579  0.1731
    1DIPC   GL220428  24.445  23.759   3.466  0.0716  0.0410  0.2523
    1DIPC   C1A20429  24.074  23.465   3.686 -0.1207 -0.0978  0.2385
    1DIPC   D2A20430  23.935  23.508   4.106 -0.2026  0.0108  0.2145
    1DIPC   D3A20431  24.130  23.895   3.986  0.2285 -0.0896 -0.0335
    1DIPC   C4A20432  24.551  23.911   4.069 -0.3954  0.1591  0.0575
    1DIPC   C1B20433  24.509  23.467   3.940 -0.0368 -0.2874  0.0668
    1DIPC   D2B20434  24.371  23.588   4.396 -0.0556  0.2467 -0.2387
    1DIPC   D3B20435  24.495  23.304   4.666 -0.0447  0.2633 -0.0652
    1DIPC   C4B20436  24.412  22.839   4.694  0.3690  0.2548  0.3023
    1DIPC   NC320437   9.507  16.102   2.611  0.0197  0.1960 -0.1612
    1DIPC   PO420438   9.434  15.738   2.643  0.2554 -0.1733  0.0166
    1DIPC   GL120439   9.295  15.932   3.048  0.1979  0.1690 -0.1189
    1DIPC   GL220440   9.347  16.313   3.101 -0.0777  0.1727 -0.0656
    1DIPC   C1A20441   9.157  15.905   3.453  0.0068  0.0305 -0.1256
    1DIPC   D2A20442   8.770  15.810   3.651 -0.2072  0.1602 -0.0207
    1DIPC   D3A20443   9.119  15.923   3.925 -0.1215  0.1319  0.0190
    1DIPC   C4A20444   9.142  16.116   4.377 -0.1190  0.1973  0.0033
    1DIPC   C1B20445   9.269  16.327   3.650  0.1637 -0.1140  0.0622
    1DIPC   D2B20446   9.432  16.431   4.046 -0.1715  0.1242  0.0684
    1DIPC   D3B20447   9.634  16.728   4.247 -0.1589  0.0844 -0.2240
    1DIPC   C4B20448   9.701  17.039   4.015  0.2691  0.2102 -0.1900
    1DIPC   NC320449   8.919  24.553   1.918  0.1965 -0.3026 -0.2989
    1DIPC   PO420450   8.642  24.492   2.325 -0.1412 -0.2925  0.1097
    1DIPC   GL120451   8.360  24.553   2.667  0.0075 -0.0399  0.0982
    1DIPC   GL220452   8.602  24.307   2.808  0.4350 -0.0871 -0.0361
    1DIPC   C1A20453   8.301  24.853   2.981  0.0309 -0.0419  0.1736
    1DIPC   D2A20454   8.047  25.190   2.989  0.0885  0.0643  0.0695
    1DIPC   D3A20455   7.705  25.352   3.245  0.2990 -0.2615 -0.2288
    1DIPC   C4A20456   7.351  25.142   3.137 -0.3288 -0.1911  0.0917
    1DIPC   C1B20457   8.582  24.498   3.191 -0.1314 -0.0774  0.0865
    1DIPC   D2B20458   8.620  24.853   3.556 -0.3136 -0.0604  0.0999
    1DIPC   D3B20459   8.869  25.174   3.594  0.0611  0.1256 -0.3896
    1DIPC   C4B20460   9.279  25.251   3.532 -0.1098 -0.1020  0.2998
    1DIPC   NC320461  19.641   1.006   3.119 -0.0738  0.0403 -0.0581
    1DIPC   PO420462  19.669   1.447   3.164  0.2579  0.2646 -0.0194
    1DIPC   GL120463  19.769   1.687   3.500 -0.0643  0.0756 -0.0316
    1DIPC   GL220464  19.727   1.548   3.831  0.1049 -0.0783 -0.3274
    1DIPC   C1A20465  20.212   1.831   3.585  0.2246 -0.1441 -0.0024
    1DIPC   D2A20466  20.638   1.754   3.728  0.0250  0.3811  0.0329
    1DIPC   D3A20467  20.586   1.390   3.816  0.4456 -0.1276 -0.0061
    1DIPC   C4A20468  20.196   1.410   3.989  0.0757  0.1178  0.1049
    1DIPC   C1B20469  19.779   1.588   4.272  0.1698 -0.3197  0.0955
    1DIPC   D2B20470  19.768   1.813   4.585 -0.2368  0.0770  0.0466
    1DIPC   D3B20471  19.897   2.255   4.529 -0.3497  0.0688  0.0904
    1DIPC   C4B20472  20.240   2.367   4.784 -0.0242 -0.0597  0.1043
    1DIPC   NC320473  12.047   7.381   3.659  0.0304 -0.1018 -0.0806
    1DIPC   PO420474  12.239   7.263   4.018 -0.3278  0.6574  0.1042
    1DIPC   GL120475  12.250   7.112   4.432 -0.2113 -0.2237  0.2765
    1DIPC   GL220476  12.539   7.044   4.433  0.0882 -0.1058 -0.0509
    1DIPC   C1A20477  11.944   6.962   4.766  0.0541  0.1374  0.2355
    1DIPC   D2A20478  11.775   6.596   4.991 -0.2757  0.0916  0.0249
    1DIPC   D3A20479  12.110   6.724   5.199 -0.1225  0.0455 -0.1269
    1DIPC   C4A20480  12.181   6.681   5.578  0.1500 -0.1664 -0.0911
    1DIPC   C1B20481  12.787   6.986   4.695 -0.0337 -0.1583 -0.0994
    1DIPC   D2B20482  12.957   6.762   4.920 -0.0707  0.2417 -0.0084
    1DIPC   D3B20483  13.087   6.772   5.299  0.3554  0.0238 -0.2058
    1DIPC   C4B20484  13.631   6.666   5.394  0.0142 -0.0697 -0.0493
    1DIPC   NC320485  28.582   6.216   2.655 -0.2737 -0.0943  0.2116
    1DIPC   PO420486  28.488   5.755   2.830  0.1326 -0.1503 -0.0530
    1DIPC   GL120487  28.441   5.631   3.308 -0.2046  0.2702  0.0079
    1DIPC   GL220488  28.388   5.918   3.541  0.1189  0.0349 -0.2475
    1DIPC   C1A20489  28.241   5.485   3.666  0.5411 -0.0142 -0.0008
    1DIPC   D2A20490  28.296   5.276   4.157 -0.0340  0.0756 -0.1989
    1DIPC   D3A20491  28.579   5.090   4.271 -0.3585 -0.0582 -0.0268
    1DIPC   C4A20492  28.492   4.730   4.288  0.1131 -0.2083  0.1049
    1DIPC   C1B20493  28.279   6.148   3.949 -0.3430 -0.4200  0.0958
    1DIPC   D2B20494  28.433   6.449   4.258 -0.0871  0.1329  0.4061
    1DIPC   D3B20495  28.532   6.026   4.350 -0.0535  0.0915  0.0898
    1DIPC   C4B20496  28.488   5.699   4.093 -0.0729 -0.0659  0.2475
    1DIPC   NC320497  24.685   5.043   2.949 -0.0215 -0.0098  0.3022
    1DIPC   PO420498  24.224   5.139   3.210 -0.0624 -0.1219 -0.2305
    1DIPC   GL120499  24.387   5.083   3.668  0.0298  0.0927  0.1797
    1DIPC   GL220500  24.768   5.223   3.475 -0.2304 -0.0965 -0.0761
    1DIPC   C1A20501  24.541   5.134   4.175  0.1170  0.4385  0.3657
    1DIPC   D2A20502  24.627   5.395   4.559 -0.2774  0.4557 -0.0027
    1DIPC   D3A20503  24.794   5.674   4.980  0.2170 -0.0957 -0.1072
    1DIPC   C4A20504  25.151   5.879   4.907  0.0958 -0.3134 -0.1646
    1DIPC   C1B20505  24.900   4.929   3.658  0.1013  0.2641  0.0696
    1DIPC   D2B20506  24.753   4.668   3.853  0.2881  0.3266 -0.1590
    1DIPC   D3B20507  25.057   4.608   4.068 -0.1216  0.0865  0.1089
    1DIPC   C4B20508  25.039   4.358   4.496 -0.0932  0.0123 -0.1366
    1DIPC   NC320509   7.223  18.200   1.879  0.3343  0.0226  0.0778
    1DIPC   PO420510   7.402  18.094   2.281  0.0933 -0.3491 -0.0759
    1DIPC   GL120511   7.441  18.270   2.761  0.2341 -0.0566  0.0466
    1DIPC   GL220512   7.532  18.695   2.847 -0.0977  0.2256  0.2339
    1DIPC   C1A20513   7.436  18.392   3.231 -0.0576  0.1041 -0.0387
    1DIPC   D2A20514   7.206  18.349   3.628  0.1379 -0.1131  0.0357
    1DIPC   D3A20515   7.091  18.008   3.500 -0.3837 -0.0712 -0.0037
    1DIPC   C4A20516   7.152  17.765   3.082 -0.2988  0.1521  0.1569
    1DIPC   C1B20517   7.276  18.965   3.165 -0.0393 -0.1249  0.1313
    1DIPC   D2B20518   7.076  19.017   3.520 -0.2535 -0.0302  0.4230
    1DIPC   D3B20519   7.310  19.288   3.837 -0.1796 -0.0132  0.0558
    1DIPC   C4B20520   7.236  19.708   4.013 -0.1677 -0.1622 -0.2771
    1DIPC   NC320521   9.713  15.509   2.350  0.0702  0.2002 -0.0636
    1DIPC   PO420522  10.121  15.386   2.406 -0.0781  0.2136 -0.1881
    1DIPC   GL120523   9.952  15.196   2.745 -0.1081  0.2301 -0.1135
    1DIPC   GL220524   9.694  15.358   2.987 -0.0835 -0.1779  0.0556
    1DIPC   C1A20525  10.034  14.802   2.996  0.1738  0.0403  0.0253
    1DIPC   D2A20526  10.085  14.780   3.429  0.0426  0.2226 -0.0187
    1DIPC   D3A20527  10.089  15.171   3.712 -0.1295  0.1783  0.3668
    1DIPC   C4A20528   9.985  14.880   3.986 -0.0231 -0.0247  0.2081
    1DIPC   C1B20529   9.565  15.542   3.312 -0.2867  0.0194  0.0868
    1DIPC   D2B20530   9.509  15.629   3.733 -0.6326  0.1834 -0.0630
    1DIPC   D3B20531   9.544  15.752   4.118  0.1589  0.1042  0.0718
    1DIPC   C4B20532   9.518  15.404   4.535 -0.1009 -0.0269 -0.1700
    1DIPC   NC320533   5.398   8.254   3.560  0.0855 -0.1178 -0.1145
    1DIPC   PO420534   5.667   8.422   3.839 -0.2894 -0.2295  0.0044
    1DIPC   GL120535   5.632   8.562   4.182  0.1311 -0.0054  0.1623
    1DIPC   GL220536   5.659   8.481   4.455  0.1991  0.1768  0.1560
    1DIPC   C1A20537   5.810   8.974   4.406  0.0788 -0.1476  0.2490
    1DIPC   D2A20538   5.992   9.182   4.728 -0.0050  0.0866  0.2872
    1DIPC   D3A20539   6.235   9.158   4.281 -0.1958  0.1594  0.0292
    1DIPC   C4A20540   6.681   9.025   4.210 -0.0482 -0.1986 -0.0243
    1DIPC   C1B20541   5.350   8.611   4.758 -0.1406 -0.1908 -0.1167
    1DIPC   D2B20542   5.147   8.512   5.021 -0.1519 -0.2180  0.2642
    1DIPC   D3B20543   5.531   8.693   5.228 -0.0310  0.0340  0.1845
    1DIPC   C4B20544   5.633   9.020   5.085  0.2598 -0.1479  0.1760
    1DIPC   NC320545  27.287  16.492   1.874 -0.2845 -0.0720 -0.1514
    1DIPC   PO420546  26.848  16.653   1.881 -0.0441  0.2179  0.0353
    1DIPC   GL120547  27.074  16.834   2.207 -0.1387  0.3933 -0.2412
    1DIPC   GL220548  27.201  16.534   2.412 -0.1056 -0.0094 -0.0099
    1DIPC   C1A20549  27.238  16.958   2.679  0.1682  0.1377 -0.1678
    1DIPC   D2A20550  27.257  16.870   3.219  0.0492  0.1758 -0.0920
    1DIPC   D3A20551  27.726  16.775   3.325 -0.0884  0.2510  0.3386
    1DIPC   C4A20552  28.050  16.506   3.386 -0.1385  0.1017  0.0835
    1DIPC   C1B20553  26.846  16.608   2.753  0.2482 -0.2002  0.0967
    1DIPC   D2B20554  26.843  16.617   3.209  0.2332  0.0287 -0.1177
    1DIPC   D3B20555  26.490  16.924   3.402 -0.1834  0.2108  0.0368
    1DIPC   C4B20556  26.623  17.195   3.768  0.1997 -0.1963 -0.2230
    1DIPC   NC320557  26.614  23.216   2.811  0.1979  0.0762  0.0047
    1DIPC   PO420558  26.301  23.340   2.999  0.0787  0.1150  0.1056
    1DIPC   GL120559  26.482  23.327   3.404  0.1805 -0.0718 -0.3093
    1DIPC   GL220560  26.635  23.518   3.434 -0.0503  0.0576 -0.0587
    1DIPC   C1A20561  26.510  23.036   3.772 -0.3447  0.1005 -0.0259
    1DIPC   D2A20562  26.177  22.925   4.029 -0.3904  0.2624  0.1363
    1DIPC   D3A20563  26.105  22.519   3.952  0.1375 -0.3594  0.3436
    1DIPC   C4A20564  26.167  22.270   4.319 -0.1965 -0.0494  0.0989
    1DIPC   C1B20565  26.898  23.376   3.845 -0.2352 -0.5794  0.1170
    1DIPC   D2B20566  26.911  23.414   4.297 -0.0588 -0.1024 -0.2476
    1DIPC   D3B20567  26.613  23.719   4.266  0.2317 -0.0168  0.0786
    1DIPC   C4B20568  26.218  23.604   4.222  0.2555 -0.0562  0.1102
    1DIPC   NC320569  10.339   7.332   3.070 -0.0636 -0.0444  0.0671
    1DIPC   PO420570  10.302   7.727   3.313 -0.0484  0.2062  0.3050
    1DIPC   GL120571  10.257   7.661   3.716  0.0475  0.0938 -0.0313
    1DIPC   GL220572  10.087   7.667   3.940  0.1462  0.1238  0.2073
    1DIPC   C1A20573  10.583   7.576   4.016 -0.1249  0.2334 -0.3161
    1DIPC   D2A20574  10.943   7.658   4.131 -0.1166  0.0961 -0.2521
    1DIPC   D3A20575  11.023   7.570   4.633  0.0939 -0.1936 -0.0651
    1DIPC   C4A20576  11.101   7.199   4.814  0.3682  0.2171 -0.2391
    1DIPC   C1B20577  10.148   7.488   4.383 -0.0794  0.0273  0.0402
    1DIPC   D2B20578  10.505   7.467   4.642 -0.1424  0.2219 -0.0666
    1DIPC   D3B20579  10.323   7.599   4.931  0.0137 -0.2122 -0.2609
    1DIPC   C4B20580  10.272   7.318   5.254 -0.1770  0.3077 -0.1827
    1DIPC   NC320581  22.960   4.147   3.109 -0.3579 -0.3664 -0.2411
    1DIPC   PO420582  23.158   4.593   2.940  0.0791 -0.3351  0.1588
    1DIPC   GL120583  23.149   4.632   3.435  0.1540  0.0917 -0.2488
    1DIPC   GL220584  23.459   4.786   3.646 -0.2708  0.1633 -0.0056
    1DIPC   C1A20585  22.824   4.652   3.796 -0.1082  0.0342  0.3303
    1DIPC   D2A20586  23.031   4.678   4.222  0.2253 -0.1936 -0.2574
    1DIPC   D3A20587  23.311   4.518   4.131  0.0662 -0.1962 -0.0783
    1DIPC   C4A20588  23.396   4.272   3.747 -0.0092 -0.0607 -0.2901
    1DIPC   C1B20589  23.748   4.628   3.927  0.0646 -0.2728  0.0788
    1DIPC   D2B20590  23.712   4.393   4.359 -0.3653 -0.0033  0.0593
    1DIPC   D3B20591  23.482   4.324   4.571 -0.1266  0.1324 -0.2130
    1DIPC   C4B20592  23.459   4.354   4.968  0.3192 -0.1421  0.2076
    1DIPC   NC320593  19.517  29.715   2.915 -0.1301  0.2195  0.2975
    1DIPC   PO420594  19.905  29.783   3.044 -0.3132  0.0194 -0.0040
    1DIPC   GL120595  20.147  29.644   3.399 -0.0662 -0.0838 -0.2188
    1DIPC   GL220596  19.998  29.588   3.723  0.0428  0.2226 -0.0906
    1DIPC   C1A20597  20.545  29.422   3.669 -0.2079 -0.2206  0.1180
    1DIPC   D2A20598  20.714  29.132   3.955  0.0319  0.1327 -0.0810
    1DIPC   D3A20599  21.071  28.972   4.098 -0.0007  0.1253  0.3747
    1DIPC   C4A20600  20.865  28.786   4.478  0.3576 -0.0461  0.0626
    1DIPC   C1B20601  19.773  29.718   4.117  0.1249 -0.0667 -0.0773
    1DIPC   D2B20602  19.585  29.547   4.494  0.0647  0.0054  0.0832
    1DIPC   D3B20603  19.245  29.387   4.517  0.3276  0.0929  0.1377
    1DIPC   C4B20604  19.337  29.042   4.757 -0.0971  0.1232 -0.2145
    1DIPC   NC320605  29.408  17.835   1.799  0.1315  0.3102  0.2224
    1DIPC   PO420606  28.927  17.734   1.809 -0.2225  0.0592 -0.1441
    1DIPC   GL120607  29.033  17.656   2.211  0.0575 -0.0704  0.0555
    1DIPC   GL220608  28.779  17.636   2.317  0.0434 -0.2853  0.1193
    1DIPC   C1A20609  29.188  17.604   2.670  0.0117 -0.1374  0.0612
    1DIPC   D2A20610  29.350  17.366   2.969  0.1731  0.0438  0.0294
    1DIPC   D3A20611  29.605  17.688   2.947  0.3190  0.1190 -0.0945
    1DIPC   C4A20612  29.737  17.810   3.370 -0.3760 -0.2407 -0.0549
    1DIPC   C1B20613  28.574  17.755   2.741  0.1676  0.1159 -0.2792
    1DIPC   D2B20614  28.557  17.560   3.077 -0.0027  0.0964 -0.0365
    1DIPC   D3B20615  28.968  17.730   3.108 -0.0281 -0.1538 -0.1745
    1DIPC   C4B20616  29.265  17.689   3.422 -0.0010  0.0994  0.1449
    1DIPC   NC320617   5.420  13.323   3.028  0.2626 -0.0388 -0.1667
    1DIPC   PO420618   5.448  12.909   3.284  0.0404 -0.1809 -0.0625
    1DIPC   GL120619   5.371  13.069   3.687 -0.4705 -0.1591  0.1662
    1DIPC   GL220620   5.361  12.808   3.898 -0.0897  0.2408 -0.1434
    1DIPC   C1A20621   5.506  13.399   3.993 -0.1373  0.1909 -0.1135
    1DIPC   D2A20622   5.536  13.439   4.464  0.0131 -0.0977 -0.3195
    1DIPC   D3A20623   5.254  13.219   4.734  0.0495 -0.0718  0.0215
    1DIPC   C4A20624   5.154  13.451   5.062  0.0565  0.0407 -0.0098
    1DIPC   C1B20625   4.919  12.657   4.014  0.4229  0.0608  0.0277
    1DIPC   D2B20626   4.579  12.702   4.276  0.0770  0.0347  0.1071
    1DIPC   D3B20627   4.641  12.523   4.649 -0.2242 -0.0558  0.1104
    1DIPC   C4B20628   4.408  12.430   4.866 -0.2891 -0.0436 -0.2921
    1DIPC   NC320629   1.982   5.510   3.295 -0.0310  0.4742 -0.3117
    1DIPC   PO420630   2.253   5.799   3.244 -0.2034  0.3719 -0.0788
    1DIPC   GL120631   2.374   5.816   3.681 -0.1914  0.0801  0.2321
    1DIPC   GL220632   2.266   6.131   3.700 -0.1968 -0.0141 -0.2977
    1DIPC   C1A20633   2.402   5.661   4.108 -0.0939  0.1182 -0.0076
    1DIPC   D2A20634   2.364   5.769   4.549 -0.1387  0.0161 -0.0809
    1DIPC   D3A20635   2.596   6.162   4.747  0.0781  0.1752  0.0048
    1DIPC   C4A20636   2.339   6.426   4.900 -0.0030  0.1478  0.0527
    1DIPC   C1B20637   1.935   6.088   4.018 -0.2801  0.1062 -0.1649
    1DIPC   D2B20638   1.631   6.261   4.269 -0.2226  0.1705  0.2035
    1DIPC   D3B20639   1.446   6.796   4.271  0.1800 -0.2166  0.0430
    1DIPC   C4B20640   1.261   7.149   4.552  0.4949  0.2538  0.2601
    1DIPC   NC320641  17.836   0.607   3.448  0.0749 -0.2920  0.2132
    1DIPC   PO420642  17.463   0.803   3.729  0.0854  0.0982  0.0463
    1DIPC   GL120643  17.779   0.744   3.967  0.1858 -0.0453 -0.3494
    1DIPC   GL220644  18.009   0.431   3.857 -0.2253  0.3970  0.2530
    1DIPC   C1A20645  17.736   0.572   4.385  0.1162 -0.2543 -0.0529
    1DIPC   D2A20646  17.497   0.597   4.608  0.0797  0.0894 -0.0109
    1DIPC   D3A20647  17.399   0.121   4.912  0.2001 -0.2190 -0.1112
    1DIPC   C4A20648  17.664   0.064   5.272  0.0219 -0.0070 -0.0463
    1DIPC   C1B20649  17.906   0.021   4.124  0.3258 -0.0977 -0.0575
    1DIPC   D2B20650  17.796   0.025   4.602  0.1693  0.1814 -0.1919
    1DIPC   D3B20651  18.211   0.314   4.544  0.0721 -0.1300 -0.1524
    1DIPC   C4B20652  18.448   0.288   4.123  0.0267 -0.1321  0.5080
    1DIPC   NC320653  28.188  10.050   2.092  0.0350 -0.2789 -0.2796
    1DIPC   PO420654  28.480  10.328   2.265 -0.1291  0.1572 -0.0912
    1DIPC   GL120655  28.356   9.943   2.556  0.1188  0.2374 -0.2649
    1DIPC   GL220656  28.195  10.015   2.887 -0.1981  0.0809 -0.1845
    1DIPC   C1A20657  28.636   9.774   2.731 -0.3681  0.1072 -0.0552
    1DIPC   D2A20658  29.036   9.926   2.967 -0.1715  0.2302  0.1907
    1DIPC   D3A20659  29.568  10.155   2.948  0.0521 -0.1208  0.2106
    1DIPC   C4A20660  29.736   9.920   3.369 -0.3768  0.1356 -0.3288
    1DIPC   C1B20661  28.006   9.872   3.293 -0.0008 -0.2197  0.0160
    1DIPC   D2B20662  28.217   9.901   3.765  0.0092  0.1202 -0.0917
    1DIPC   D3B20663  28.615  10.084   3.801 -0.2024  0.0122  0.0088
    1DIPC   C4B20664  28.800  10.076   4.265 -0.1838  0.1016  0.1729
    1DIPC   NC320665  16.448   4.370   3.209  0.2080  0.3544 -0.2364
    1DIPC   PO420666  16.165   4.105   3.310 -0.2311  0.2706 -0.1199
    1DIPC   GL120667  16.190   4.258   3.683 -0.1037  0.0614 -0.0176
    1DIPC   GL220668  16.207   4.548   3.571  0.1643  0.0244  0.3133
    1DIPC   C1A20669  15.839   4.207   3.970 -0.1200 -0.0715  0.0977
    1DIPC   D2A20670  15.398   3.965   4.008 -0.2687 -0.3738  0.1843
    1DIPC   D3A20671  15.773   3.764   4.183  0.1273  0.0017  0.1073
    1DIPC   C4A20672  15.864   3.779   4.568 -0.1192 -0.0396  0.1841
    1DIPC   C1B20673  16.075   4.621   3.991 -0.1992 -0.2677 -0.1062
    1DIPC   D2B20674  16.061   4.954   4.376  0.1743 -0.0903  0.1928
    1DIPC   D3B20675  15.720   4.888   4.782 -0.0231  0.5996  0.3087
    1DIPC   C4B20676  15.323   4.644   4.646 -0.1162 -0.2712 -0.0552
    1DIPC   NC320677  20.966  22.028   2.120 -0.0545 -0.1271 -0.1284
    1DIPC   PO420678  21.007  21.559   2.238  0.2355 -0.0814 -0.0031
    1DIPC   GL120679  20.883  21.442   2.673  0.0410  0.1924  0.2148
    1DIPC   GL220680  20.561  21.539   2.850 -0.0649  0.0658  0.0038
    1DIPC   C1A20681  21.199  21.363   2.999  0.1154 -0.2778 -0.3070
    1DIPC   D2A20682  21.442  21.254   3.397  0.1690 -0.0282  0.0845
    1DIPC   D3A20683  21.885  21.260   3.293 -0.0661  0.0917 -0.3804
    1DIPC   C4A20684  21.972  20.981   3.655  0.1437 -0.2896 -0.1422
    1DIPC   C1B20685  20.830  21.573   3.207 -0.0165 -0.0859 -0.2349
    1DIPC   D2B20686  21.253  21.707   3.335  0.1512 -0.1105  0.0528
    1DIPC   D3B20687  21.054  21.644   3.679 -0.3447 -0.0513 -0.0109
    1DIPC   C4B20688  21.335  21.754   4.099  0.0390 -0.2239 -0.0313
    1DIPC   NC320689  17.088  27.466   2.996  0.0959 -0.0083 -0.0145
    1DIPC   PO420690  16.831  27.110   3.024  0.2001 -0.2189  0.2754
    1DIPC   GL120691  16.894  26.911   3.444  0.0167  0.0982  0.3072
    1DIPC   GL220692  16.602  27.040   3.591 -0.4659  0.0768  0.0895
    1DIPC   C1A20693  16.917  26.741   3.861 -0.3088 -0.0880  0.1332
    1DIPC   D2A20694  16.991  26.558   4.257 -0.1871  0.0170  0.1069
    1DIPC   D3A20695  17.107  26.834   4.495  0.0039  0.0792 -0.1249
    1DIPC   C4A20696  17.276  27.139   4.389  0.1571 -0.1138 -0.0501
    1DIPC   C1B20697  16.388  26.729   3.870  0.2374  0.2494 -0.0826
    1DIPC   D2B20698  16.286  26.594   4.278  0.1003  0.0170 -0.0994
    1DIPC   D3B20699  16.231  26.525   4.725 -0.1653 -0.1194 -0.1231
    1DIPC   C4B20700  16.178  26.820   4.905 -0.3141  0.1678  0.1214
    1DIPC   NC320701   0.343  19.842   1.880  0.2797  0.1369  0.0761
    1DIPC   PO420702   0.000  20.013   2.021  0.2011 -0.0615  0.0933
    1DIPC   GL120703  -0.083  20.047   2.405 -0.0458 -0.1776 -0.0087
    1DIPC   GL220704   0.315  20.047   2.495 -0.0617  0.2061 -0.1857
    1DIPC   C1A20705  -0.072  19.772   2.763 -0.0113  0.0677 -0.0453
    1DIPC   D2A20706  -0.403  19.625   3.086 -0.1665  0.0599 -0.0252
    1DIPC   D3A20707  -0.265  19.267   3.238  0.0887  0.1630  0.0572
    1DIPC   C4A20708   0.088  19.377   3.607  0.0213 -0.1845 -0.0160
    1DIPC   C1B20709   0.561  19.765   2.788  0.0113  0.0017  0.1830
    1DIPC   D2B20710   0.783  19.384   2.761 -0.2064 -0.0056  0.1271
    1DIPC   D3B20711   1.195  19.504   2.449  0.0006  0.0290  0.3117
    1DIPC   C4B20712   1.465  19.838   2.582  0.1511 -0.1946 -0.2854
    1DIPC   NC320713   7.999  15.952   2.398 -0.1979  0.1500  0.2611
    1DIPC   PO420714   8.289  15.919   2.816 -0.0533  0.1898  0.1303
    1DIPC   GL120715   8.124  16.058   3.166  0.0107  0.0134 -0.2793
    1DIPC   GL220716   8.315  16.058   3.456  0.2020  0.0219  0.0384
    1DIPC   C1A20717   7.856  16.262   3.421  0.0070 -0.2086 -0.1943
    1DIPC   D2A20718   7.471  16.158   3.582 -0.0342 -0.1332 -0.0867
    1DIPC   D3A20719   7.384  16.462   3.818  0.1697 -0.2818  0.1421
    1DIPC   C4A20720   7.310  16.773   4.128  0.0771 -0.0630 -0.0217
    1DIPC   C1B20721   8.216  16.203   3.849  0.2375  0.0621  0.0690
    1DIPC   D2B20722   8.167  15.964   4.186  0.0281 -0.0194  0.2571
    1DIPC   D3B20723   8.105  15.649   4.418 -0.0105  0.4072  0.2833
    1DIPC   C4B20724   7.740  15.513   4.587  0.3056 -0.0031  0.0044
    1DIPC   NC320725   8.162  19.858   2.033 -0.0448  0.0410 -0.0071
    1DIPC   PO420726   8.330  20.374   2.155  0.1278  0.0502  0.1952
    1DIPC   GL120727   7.970  20.378   2.472 -0.0303 -0.2670 -0.2671
    1DIPC   GL220728   8.041  20.669   2.658  0.2457 -0.1772 -0.0118
    1DIPC   C1A20729   7.553  20.384   2.771 -0.0459  0.3754 -0.0051
    1DIPC   D2A20730   7.462  20.831   2.807  0.1679 -0.3124  0.1857
    1DIPC   D3A20731   7.530  20.719   3.247 -0.0520 -0.1727  0.0694
    1DIPC   C4A20732   7.762  20.939   3.588 -0.0628  0.2224 -0.2364
    1DIPC   C1B20733   7.989  20.777   3.042  0.2956  0.0595  0.0145
    1DIPC   D2B20734   7.979  20.527   3.396 -0.0256  0.4049 -0.0460
    1DIPC   D3B20735   7.658  20.331   3.589 -0.0698  0.0436  0.2403
    1DIPC   C4B20736   7.485  20.169   4.034 -0.1962  0.2221 -0.3489
    1DIPC   NC320737  23.436   7.335   2.918 -0.1639 -0.2508 -0.0581
    1DIPC   PO420738  22.937   7.370   3.094 -0.0010  0.1156 -0.2141
    1DIPC   GL120739  23.062   7.548   3.440  0.0858 -0.3762 -0.2725
    1DIPC   GL220740  22.814   7.617   3.564  0.2845 -0.2666  0.0226
    1DIPC   C1A20741  23.417   7.375   3.758 -0.2157 -0.0042 -0.1046
    1DIPC   D2A20742  24.030   7.373   3.800  0.4091  0.2699 -0.2458
    1DIPC   D3A20743  24.128   7.000   4.024  0.0041  0.3267 -0.0671
    1DIPC   C4A20744  24.058   7.089   4.466  0.1042  0.2339  0.0953
    1DIPC   C1B20745  22.956   7.347   3.934  0.1498  0.0157 -0.1447
    1DIPC   D2B20746  23.119   7.419   4.409  0.0428  0.2094  0.0792
    1DIPC   D3B20747  22.949   7.018   4.433 -0.0203 -0.0670 -0.3820
    1DIPC   C4B20748  23.056   6.767   4.802  0.0221 -0.2026  0.2324
    1DIPC   NC320749  26.969  19.895   2.004 -0.0428  0.1200 -0.2392
    1DIPC   PO420750  26.657  20.153   2.042  0.1450 -0.1789 -0.0395
    1DIPC   GL120751  26.797  20.189   2.425 -0.1924 -0.4511  0.1161
    1DIPC   GL220752  26.560  20.156   2.782  0.0194 -0.1371 -0.0723
    1DIPC   C1A20753  27.093  20.147   2.858  0.0797 -0.1145 -0.0190
    1DIPC   D2A20754  27.352  20.369   3.250  0.2123 -0.0816 -0.0481
    1DIPC   D3A20755  27.340  20.088   3.576  0.1372  0.2000  0.0641
    1DIPC   C4A20756  26.917  20.044   3.856 -0.2063 -0.0589 -0.1074
    1DIPC   C1B20757  26.273  20.088   3.197  0.1538 -0.0133  0.0141
    1DIPC   D2B20758  26.521  20.188   3.633  0.1000  0.0266  0.0856
    1DIPC   D3B20759  26.455  20.153   4.087  0.0618 -0.0038  0.0822
    1DIPC   C4B20760  26.435  19.767   4.322 -0.1988 -0.0095  0.0525
    1DIPC   NC320761  22.713  24.019   2.477 -0.1421  0.0452 -0.0463
    1DIPC   PO420762  22.505  23.641   2.721 -0.1421  0.1175 -0.1983
    1DIPC   GL120763  22.551  23.750   3.177 -0.1720 -0.0559 -0.0478
    1DIPC   GL220764  22.877  23.906   3.163  0.2188 -0.1653 -0.1598
    1DIPC   C1A20765  22.494  23.448   3.494 -0.0657 -0.1323  0.1601
    1DIPC   D2A20766  22.498  23.242   3.945  0.1069  0.2133  0.2208
    1DIPC   D3A20767  22.150  23.007   4.103  0.0548 -0.0718  0.0207
    1DIPC   C4A20768  22.255  22.674   4.390 -0.0294  0.0968 -0.2142
    1DIPC   C1B20769  22.802  23.840   3.549  0.0263  0.0844  0.0726
    1DIPC   D2B20770  23.001  23.535   3.855  0.0439  0.0161  0.1692
    1DIPC   D3B20771  23.051  23.091   3.693 -0.0741  0.0489  0.0300
    1DIPC   C4B20772  22.690  22.952   3.458  0.1472 -0.0461  0.0463
    1DIPC   NC320773   7.016  15.564   2.878  0.1976 -0.1888 -0.2279
    1DIPC   PO420774   6.800  15.830   2.569 -0.0959  0.0819 -0.1304
    1DIPC   GL120775   6.662  15.839   3.056 -0.2197 -0.0439  0.1572
    1DIPC   GL220776   6.403  15.671   3.175 -0.4359  0.1353  0.2087
    1DIPC   C1A20777   6.946  15.919   3.467 -0.0314  0.1664 -0.2903
    1DIPC   D2A20778   7.223  15.725   3.887  0.3951 -0.0185  0.0609
    1DIPC   D3A20779   6.908  15.690   4.284 -0.0295 -0.1692  0.0253
    1DIPC   C4A20780   6.529  15.532   4.362 -0.0454  0.0319  0.1676
    1DIPC   C1B20781   6.299  15.897   3.513 -0.3048 -0.1840  0.3020
    1DIPC   D2B20782   6.085  16.148   3.792  0.1839 -0.2983  0.0806
    1DIPC   D3B20783   6.047  16.467   3.521 -0.1069  0.1637  0.1082
    1DIPC   C4B20784   5.814  16.784   3.704 -0.1461 -0.1733  0.2076
    1DIPC   NC320785   8.203  23.727   1.977  0.4860 -0.1229  0.1018
    1DIPC   PO420786   8.012  23.347   1.967 -0.0047  0.1717  0.0554
    1DIPC   GL120787   7.828  23.261   2.418 -0.0392  0.1475  0.0455
    1DIPC   GL220788   7.561  23.043   2.505  0.2218  0.4935  0.0653
    1DIPC   C1A20789   7.942  22.849   2.697  0.1625 -0.0553  0.0689
    1DIPC   D2A20790   7.600  22.761   2.986  0.0945 -0.1634  0.0596
    1DIPC   D3A20791   7.309  23.126   3.029 -0.2287 -0.1499 -0.2589
    1DIPC   C4A20792   7.449  23.500   3.249  0.0317 -0.3092 -0.0229
    1DIPC   C1B20793   7.193  22.838   2.657 -0.1801  0.0255 -0.5421
    1DIPC   D2B20794   6.858  22.595   2.533 -0.2353  0.0176 -0.0024
    1DIPC   D3B20795   6.747  22.424   2.937  0.0867 -0.2075  0.2120
    1DIPC   C4B20796   6.540  22.256   3.235  0.0648 -0.0652 -0.0623
    1DIPC   NC320797   3.236  21.812   1.861  0.1059 -0.0279  0.2030
    1DIPC   PO420798   3.254  22.234   1.703 -0.1056  0.0175  0.1327
    1DIPC   GL120799   2.938  22.283   1.991  0.0126 -0.1839 -0.0160
    1DIPC   GL220800   2.877  21.946   2.163  0.0733 -0.0238 -0.0758
    1DIPC   C1A20801   2.740  22.470   2.278 -0.1192 -0.0999 -0.1935
    1DIPC   D2A20802   2.685  22.360   2.671 -0.1738  0.0722 -0.1507
    1DIPC   D3A20803   3.129  22.390   2.728  0.2436 -0.3026 -0.0927
    1DIPC   C4A20804   3.287  22.297   2.328 -0.3105  0.0656 -0.0850
    1DIPC   C1B20805   2.942  21.887   2.566 -0.0591  0.2193  0.1842
    1DIPC   D2B20806   2.998  21.988   3.029 -0.1472  0.5102  0.0796
    1DIPC   D3B20807   3.028  21.997   3.409 -0.1038 -0.1121  0.0205
    1DIPC   C4B20808   2.722  21.788   3.619 -0.1915 -0.0621  0.0920
    1DIPC   NC320809   4.626   4.364   3.057 -0.1258  0.2785 -0.1027
    1DIPC   PO420810   4.392   4.586   3.332 -0.0071 -0.0237  0.1318
    1DIPC   GL120811   4.383   4.603   3.720  0.0231 -0.0726  0.0549
    1DIPC   GL220812   4.060   4.722   3.805  0.0084  0.2247 -0.0690
    1DIPC   C1A20813   4.644   4.425   4.059  0.4785  0.0167  0.0567
    1DIPC   D2A20814   4.648   4.337   4.523  0.0836 -0.1405 -0.0733
    1DIPC   D3A20815   4.922   4.203   4.832  0.2576 -0.1783  0.2673
    1DIPC   C4A20816   4.996   4.435   5.231  0.0258  0.2429 -0.3137
    1DIPC   C1B20817   4.198   4.579   4.242 -0.2340 -0.0993  0.0003
    1DIPC   D2B20818   4.250   4.614   4.711 -0.0949  0.0944 -0.3245
    1DIPC   D3B20819   4.717   4.767   4.813  0.2776  0.1676  0.0008
    1DIPC   C4B20820   5.107   4.778   4.762  0.1156 -0.0173 -0.0975
    1DIPC   NC320821   0.780  29.976   2.920  0.0757  0.1189  0.0281
    1DIPC   PO420822   0.900  30.149   3.351 -0.0432 -0.1967  0.2381
    1DIPC   GL120823   0.698  30.049   3.698 -0.2103  0.2116 -0.0806
    1DIPC   GL220824   0.411  30.271   3.756 -0.0261  0.2519  0.0906
    1DIPC   C1A20825   0.655  29.987   4.137  0.0110  0.3585  0.0438
    1DIPC   D2A20826   0.642  29.764   4.557  0.1139  0.1960  0.1149
    1DIPC   D3A20827   0.963  29.480   4.821 -0.1365  0.0546 -0.4302
    1DIPC   C4A20828   1.218  29.667   5.107  0.0973  0.0095  0.0176
    1DIPC   C1B20829   0.127  30.296   4.051  0.2172  0.1585  0.2392
    1DIPC   D2B20830  -0.112  30.102   4.274  0.3743  0.2908  0.1581
    1DIPC   D3B20831  -0.401  29.726   4.200 -0.1621  0.0317  0.3416
    1DIPC   C4B20832  -0.481  29.369   4.396 -0.0897 -0.0137 -0.0706
    1DIPC   NC320833   8.004  17.024   2.667 -0.0593 -0.0866 -0.1314
    1DIPC   PO420834   8.022  17.494   2.573 -0.0405  0.1377 -0.1387
    1DIPC   GL120835   7.841  17.471   3.012 -0.0832 -0.2447 -0.2036
    1DIPC   GL220836   7.981  17.444   3.309 -0.0754 -0.1822  0.0243
    1DIPC   C1A20837   7.510  17.440   3.293  0.0606  0.1188  0.1589
    1DIPC   D2A20838   7.331  17.570   3.537 -0.0838 -0.0044  0.2143
    1DIPC   D3A20839   7.401  17.631   4.038 -0.0833 -0.1387 -0.1065
    1DIPC   C4A20840   7.055  17.539   4.283 -0.1031  0.1402 -0.1369
    1DIPC   C1B20841   7.803  17.414   3.649  0.1926  0.0797  0.0360
    1DIPC   D2B20842   7.790  17.080   3.945 -0.1060  0.1143  0.6177
    1DIPC   D3B20843   8.067  17.104   4.281 -0.1516  0.1027  0.0496
    1DIPC   C4B20844   7.904  17.333   4.590  0.2040  0.0112 -0.2990
    1DIPC   NC320845  18.126  22.745   2.695 -0.0515 -0.0383  0.0255
    1DIPC   PO420846  18.367  23.075   3.081  0.1852  0.4731 -0.1676
    1DIPC   GL120847  18.383  23.396   3.311 -0.1050 -0.1739  0.2227
    1DIPC   GL220848  18.143  23.570   3.510 -0.0402 -0.0664 -0.3185
    1DIPC   C1A20849  18.702  23.648   3.562  0.3003 -0.2446  0.4039
    1DIPC   D2A20850  18.529  24.003   3.722 -0.1156  0.2496  0.0356
    1DIPC   D3A20851  18.604  23.912   4.115  0.0291  0.2922 -0.0823
    1DIPC   C4A20852  18.705  24.235   4.476  0.0853 -0.4208  0.0092
    1DIPC   C1B20853  17.778  23.666   3.805  0.2490  0.1237 -0.4431
    1DIPC   D2B20854  17.603  23.932   4.059 -0.3605 -0.1603 -0.2065
    1DIPC   D3B20855  17.764  23.987   4.553  0.1340 -0.1001 -0.2725
    1DIPC   C4B20856  18.083  23.837   4.823 -0.0416 -0.0234  0.2736
    1DIPC   NC320857   0.605  15.852   1.396 -0.1250 -0.2836 -0.3942
    1DIPC   PO420858   0.650  15.555   1.677 -0.2368 -0.1523 -0.1962
    1DIPC   GL120859   0.641  15.392   2.086 -0.1291  0.1640  0.0449
    1DIPC   GL220860   0.815  15.593   2.228 -0.3772  0.1378  0.0863
    1DIPC   C1A20861   0.680  15.181   2.505  0.0798 -0.1487 -0.2632
    1DIPC   D2A20862   0.856  14.685   2.486  0.1606 -0.1313 -0.2479
    1DIPC   D3A20863   0.750  14.332   2.915  0.0532 -0.0136  0.0498
    1DIPC   C4A20864   0.736  14.447   3.331  0.1361  0.0861 -0.0249
    1DIPC   C1B20865   0.686  15.615   2.728 -0.0016  0.1919 -0.0749
    1DIPC   D2B20866   1.016  15.599   3.090 -0.0076 -0.0273  0.1086
    1DIPC   D3B20867   0.956  15.933   3.432 -0.1145 -0.1542 -0.0924
    1DIPC   C4B20868   0.460  16.089   3.462 -0.1885  0.0016  0.4944
    1DIPC   NC320869  20.934   1.072   2.827 -0.3672 -0.3185  0.3131
    1DIPC   PO420870  21.218   0.720   2.691 -0.1658  0.3362 -0.0198
    1DIPC   GL120871  21.216   0.339   2.948 -0.3214 -0.1349  0.2177
    1DIPC   GL220872  21.017   0.438   3.261 -0.2272  0.0615  0.0638
    1DIPC   C1A20873  21.221  -0.083   3.037  0.1636  0.1829 -0.0242
    1DIPC   D2A20874  21.305  -0.650   3.111 -0.2438 -0.0419  0.2460
    1DIPC   D3A20875  20.868  -0.491   3.187 -0.0001  0.0454 -0.1842
    1DIPC   C4A20876  20.562  -0.246   3.544 -0.1217  0.0483 -0.1632
    1DIPC   C1B20877  20.809   0.220   3.679  0.2554  0.0869 -0.1583
    1DIPC   D2B20878  20.777  -0.061   3.966 -0.1909  0.1296  0.1469
    1DIPC   D3B20879  20.961   0.086   4.259 -0.2636  0.2050  0.3066
    1DIPC   C4B20880  20.679   0.148   4.645  0.1151 -0.2394  0.2899
    1DIPC   NC320881   9.973   6.625   3.481 -0.1733 -0.0491  0.2075
    1DIPC   PO420882  10.355   6.473   3.293 -0.0150  0.1517  0.1364
    1DIPC   GL120883  10.358   6.374   3.829 -0.0984  0.0100  0.1204
    1DIPC   GL220884  10.069   6.179   3.960 -0.1312  0.1514 -0.0388
    1DIPC   C1A20885  10.356   6.661   4.085 -0.2893 -0.1405 -0.5033
    1DIPC   D2A20886  10.437   7.018   4.346  0.3104 -0.1370  0.0889
    1DIPC   D3A20887  10.142   7.043   4.736  0.1236 -0.0398 -0.2669
    1DIPC   C4A20888   9.861   7.453   4.801 -0.2172 -0.0124  0.4655
    1DIPC   C1B20889  10.192   6.283   4.363 -0.1375  0.5200 -0.1772
    1DIPC   D2B20890  10.251   6.079   4.719  0.0769  0.2435 -0.1046
    1DIPC   D3B20891  10.028   6.165   5.028 -0.0017  0.0654  0.0716
    1DIPC   C4B20892   9.852   6.482   5.272 -0.0875 -0.1906  0.4675
    1DIPC   NC320893   3.975  10.279   2.731  0.1007 -0.0793 -0.2786
    1DIPC   PO420894   3.949   9.791   2.793  0.0540 -0.1049  0.1582
    1DIPC   GL120895   3.805   9.790   3.174 -0.0616  0.0189 -0.5548
    1DIPC   GL220896   3.719   9.508   3.198 -0.0328  0.0066 -0.0133
    1DIPC   C1A20897   3.846  10.091   3.609  0.2274  0.2853 -0.2069
    1DIPC   D2A20898   3.899  10.544   3.723 -0.2866 -0.4538  0.0216
    1DIPC   D3A20899   4.345  10.419   3.618  0.1673  0.1187  0.1552
    1DIPC   C4A20900   4.717  10.781   3.713 -0.2889  0.4755  0.5228
    1DIPC   C1B20901   3.642   9.627   3.662 -0.0159  0.1923 -0.2525
    1DIPC   D2B20902   3.717   9.863   4.062  0.0258  0.0262 -0.0994
    1DIPC   D3B20903   3.318  10.092   4.045  0.2337  0.2519  0.2508
    1DIPC   C4B20904   3.032   9.902   3.813  0.2482  0.0378 -0.0204
    1DIPC   NC320905  11.633  23.676   2.311 -0.4869  0.0913 -0.0949
    1DIPC   PO420906  11.503  23.224   2.406 -0.1883  0.0255  0.1689
    1DIPC   GL120907  11.601  23.160   2.792 -0.2726 -0.2252  0.0711
    1DIPC   GL220908  11.841  23.166   2.984  0.0159  0.0866 -0.0295
    1DIPC   C1A20909  11.221  23.378   3.096  0.0006 -0.2136 -0.4927
    1DIPC   D2A20910  11.056  23.302   3.543  0.2770  0.1228  0.1565
    1DIPC   D3A20911  11.046  22.922   3.795 -0.0942 -0.0068 -0.0798
    1DIPC   C4A20912  11.468  22.670   3.918  0.1261 -0.1050  0.0229
    1DIPC   C1B20913  11.982  22.901   3.267  0.2339 -0.1910  0.2612
    1DIPC   D2B20914  12.299  22.855   3.630 -0.1860  0.1807 -0.0962
    1DIPC   D3B20915  12.376  22.554   4.010  0.0352  0.0885 -0.2661
    1DIPC   C4B20916  12.683  22.307   4.096  0.2865 -0.2221 -0.0985
    1DIPC   NC320917  18.597   6.000   3.317 -0.0011  0.1639  0.1227
    1DIPC   PO420918  18.652   5.639   3.542  0.0242  0.1918  0.0977
    1DIPC   GL120919  18.689   5.675   4.032 -0.4981  0.3213  0.4055
    1DIPC   GL220920  18.461   5.688   4.315  0.0541 -0.3217  0.2362
    1DIPC   C1A20921  18.957   5.534   4.420  0.0133  0.0335 -0.0099
    1DIPC   D2A20922  19.060   5.569   4.962  0.0098 -0.1828  0.0352
    1DIPC   D3A20923  18.800   5.898   4.921 -0.1192  0.1606  0.3839
    1DIPC   C4A20924  18.578   6.170   5.323  0.1475 -0.0551 -0.1041
    1DIPC   C1B20925  18.563   5.465   4.745 -0.3813 -0.2734  0.2097
    1DIPC   D2B20926  18.766   5.121   4.908  0.0568  0.0172  0.1709
    1DIPC   D3B20927  18.407   4.992   4.858  0.1628  0.0707 -0.0337
    1DIPC   C4B20928  18.167   4.888   5.180  0.3233 -0.3093 -0.0182
    1DIPC   NC320929  11.403   0.827   2.971  0.1568  0.2206 -0.2536
    1DIPC   PO420930  11.263   0.667   3.460  0.0524 -0.0379  0.1900
    1DIPC   GL120931  11.174   0.561   3.948  0.0588 -0.1989 -0.0082
    1DIPC   GL220932  11.186   0.784   4.236 -0.1840  0.4420  0.0155
    1DIPC   C1A20933  11.214   0.330   4.355 -0.1362 -0.2917 -0.0711
    1DIPC   D2A20934  11.413   0.106   4.675 -0.0757  0.2935 -0.0590
    1DIPC   D3A20935  11.285   0.159   5.121  0.1000 -0.1460  0.0739
    1DIPC   C4A20936  11.374  -0.028   5.517  0.0845  0.0283  0.0252
    1DIPC   C1B20937  11.035   0.891   4.694  0.1833  0.0154  0.4604
    1DIPC   D2B20938  10.987   1.113   5.024  0.3612 -0.3870  0.0595
    1DIPC   D3B20939  11.290   1.439   5.184  0.1650 -0.1595 -0.0342
    1DIPC   C4B20940  11.287   1.735   5.523  0.1335 -0.2707  0.0316
    1DIPC   NC320941   0.764   1.917   3.084  0.3392  0.1067 -0.2110
    1DIPC   PO420942   0.551   2.309   3.192 -0.1623 -0.0913 -0.0247
    1DIPC   GL120943   0.790   2.468   3.521  0.1876  0.0674 -0.0828
    1DIPC   GL220944   0.538   2.397   3.753  0.0584 -0.2949  0.0365
    1DIPC   C1A20945   1.022   2.567   3.823 -0.0550  0.2062 -0.1600
    1DIPC   D2A20946   1.025   2.575   4.298  0.3767  0.0489 -0.0285
    1DIPC   D3A20947   0.801   2.556   4.607  0.2053  0.1729  0.1313
    1DIPC   C4A20948   1.021   2.803   4.863 -0.1984  0.3144  0.1889
    1DIPC   C1B20949   0.670   2.251   4.153 -0.1486  0.2875 -0.0353
    1DIPC   D2B20950   0.861   2.005   4.536  0.2240  0.1594 -0.1278
    1DIPC   D3B20951   1.404   1.879   4.537 -0.1888  0.0683 -0.2269
    1DIPC   C4B20952   1.636   1.500   4.424  0.3188 -0.1196 -0.0488
    1DIPC   NC320953   6.545   5.730   3.314 -0.0221  0.0575  0.2997
    1DIPC   PO420954   6.740   6.108   3.246  0.1317 -0.3287  0.0960
    1DIPC   GL120955   6.765   6.151   3.750 -0.0938 -0.0472  0.0786
    1DIPC   GL220956   6.843   5.922   3.786 -0.1773  0.2168 -0.2607
    1DIPC   C1A20957   6.580   6.189   4.187 -0.0482  0.0288  0.3916
    1DIPC   D2A20958   6.482   5.980   4.512  0.1423 -0.0547 -0.1870
    1DIPC   D3A20959   6.578   6.367   4.650 -0.3065 -0.0447  0.0504
    1DIPC   C4A20960   6.237   6.408   4.749 -0.1915 -0.0236  0.0759
    1DIPC   C1B20961   6.699   5.703   4.169 -0.2221 -0.1963  0.0133
    1DIPC   D2B20962   6.786   5.281   4.391 -0.1176  0.0190 -0.1221
    1DIPC   D3B20963   6.386   5.380   4.633 -0.1454 -0.1091  0.4963
    1DIPC   C4B20964   6.147   5.005   4.785  0.2172 -0.0209 -0.2738
    1DIPC   NC320965  14.815   0.801   3.163  0.1441 -0.1175 -0.2644
    1DIPC   PO420966  15.146   0.787   3.529  0.1285 -0.2732  0.0128
    1DIPC   GL120967  15.347   0.636   3.911 -0.1338 -0.3258  0.2752
    1DIPC   GL220968  15.138   0.874   4.106 -0.1600  0.1916 -0.3955
    1DIPC   C1A20969  15.302   0.361   4.332 -0.1968 -0.0177 -0.0378
    1DIPC   D2A20970  15.282   0.392   4.831 -0.0150 -0.2366  0.0939
    1DIPC   D3A20971  15.440   0.177   5.158 -0.0536 -0.4094  0.1825
    1DIPC   C4A20972  15.597  -0.219   5.030  0.1103 -0.1806 -0.0584
    1DIPC   C1B20973  14.788   0.783   4.384 -0.2344 -0.0806 -0.1253
    1DIPC   D2B20974  14.610   0.613   4.669 -0.1462 -0.1550 -0.1073
    1DIPC   D3B20975  14.968   0.992   4.791 -0.0282 -0.0869  0.0314
    1DIPC   C4B20976  14.881   1.357   4.875  0.1871  0.1456 -0.2240
    1DIPC   NC320977  15.727  27.061   2.830  0.1993  0.1326  0.1803
    1DIPC   PO420978  15.915  26.689   2.997 -0.0261 -0.0272  0.4183
    1DIPC   GL120979  16.114  26.453   3.307  0.0740  0.4039  0.2137
    1DIPC   GL220980  16.050  26.786   3.485 -0.1893 -0.1562 -0.1812
    1DIPC   C1A20981  16.188  26.304   3.660 -0.0200  0.2043 -0.1083
    1DIPC   D2A20982  16.099  26.161   4.057  0.2590  0.0035  0.0397
    1DIPC   D3A20983  16.290  26.131   4.378  0.0080  0.1536 -0.0788
    1DIPC   C4A20984  16.075  25.990   4.709 -0.1369  0.1510 -0.4131
    1DIPC   C1B20985  16.095  27.170   3.659  0.1068 -0.1960 -0.2350
    1DIPC   D2B20986  15.972  27.627   3.609 -0.0822 -0.3595  0.1017
    1DIPC   D3B20987  15.593  27.618   3.857  0.0707 -0.0471 -0.2759
    1DIPC   C4B20988  15.594  27.327   4.273  0.1188  0.0526  0.0612
    1DIPC   NC320989  28.329   4.007   2.508 -0.0848 -0.2544  0.1345
    1DIPC   PO420990  27.868   3.818   2.577 -0.0997 -0.3218  0.1030
    1DIPC   GL120991  28.014   3.989   2.921 -0.0304  0.1278 -0.2349
    1DIPC   GL220992  27.875   4.167   3.139  0.3072 -0.3295 -0.2661
    1DIPC   C1A20993  27.834   3.691   3.305  0.2178  0.2408 -0.2967
    1DIPC   D2A20994  27.664   3.306   3.424  0.3083  0.1666 -0.0235
    1DIPC   D3A20995  27.581   3.327   3.923 -0.1553 -0.1003  0.0309
    1DIPC   C4A20996  27.811   3.205   4.187 -0.1039  0.0114 -0.2055
    1DIPC   C1B20997  27.961   4.156   3.550  0.0073  0.1888 -0.3068
    1DIPC   D2B20998  27.687   4.399   3.776  0.0263  0.1901 -0.2392
    1DIPC   D3B20999  27.326   4.270   3.937 -0.3536  0.2185  0.1458
    1DIPC   C4B21000  27.014   4.523   3.885 -0.0270  0.0159  0.0912
    1DIPC   NC321001  30.056  15.836   1.426 -0.0784 -0.0698 -0.1144
    1DIPC   PO421002  30.270  15.646   1.751 -0.1082  0.2012  0.0709
    1DIPC   GL121003  30.513  15.890   1.976 -0.0927 -0.2357 -0.2382
    1DIPC   GL221004  30.375  16.048   2.211  0.3343 -0.2077  0.1299
    1DIPC   C1A21005  30.813  16.180   1.967 -0.2362 -0.1595  0.1326
    1DIPC   D2A21006  30.794  16.581   2.075 -0.2985  0.0223 -0.1796
    1DIPC   D3A21007  30.627  16.471   2.534  0.5144 -0.2244  0.0039
    1DIPC   C4A21008  30.810  16.131   2.916 -0.1413 -0.0277 -0.0260
    1DIPC   C1B21009  30.472  15.994   2.560 -0.1466  0.1100 -0.0276
    1DIPC   D2B21010  30.377  15.821   2.854 -0.0802  0.3289  0.0577
    1DIPC   D3B21011  30.588  15.701   3.228  0.0411 -0.0933  0.1527
    1DIPC   C4B21012  30.319  15.305   3.314 -0.0454 -0.0901 -0.0326
    1DIPC   NC321013  28.046   5.446   2.980  0.1645  0.0744  0.3332
    1DIPC   PO421014  27.552   5.525   2.991 -0.2986 -0.6892  0.3100
    1DIPC   GL121015  27.622   5.472   3.382  0.0227 -0.0638  0.2399
    1DIPC   GL221016  27.370   5.410   3.711 -0.1078  0.0250  0.0842
    1DIPC   C1A21017  27.780   5.812   3.717 -0.1917 -0.3293 -0.0290
    1DIPC   D2A21018  28.024   5.663   4.109 -0.0545 -0.0394 -0.0409
    1DIPC   D3A21019  27.805   5.297   4.035 -0.0470 -0.2618  0.0692
    1DIPC   C4A21020  27.479   5.264   4.180  0.1304  0.2790  0.1510
    1DIPC   C1B21021  27.427   5.722   4.013 -0.0774 -0.4432  0.1976
    1DIPC   D2B21022  27.209   5.713   4.322  0.0395 -0.0519  0.0166
    1DIPC   D3B21023  27.010   5.356   4.522  0.1712 -0.1019  0.3285
    1DIPC   C4B21024  26.708   5.122   4.447  0.1450  0.1539 -0.2949
    1DIPC   NC321025   7.807  11.400   3.970  0.2464 -0.1808 -0.1397
    1DIPC   PO421026   8.062  11.120   3.731  0.0289 -0.1096 -0.0745
    1DIPC   GL121027   8.066  10.810   4.094 -0.0786  0.2898 -0.0604
    1DIPC   GL221028   7.860  10.926   4.278  0.0215 -0.0542  0.1131
    1DIPC   C1A21029   8.264  10.660   4.552  0.0113 -0.3780  0.0013
    1DIPC   D2A21030   8.291  10.603   4.890 -0.0583 -0.3263  0.0971
    1DIPC   D3A21031   8.136  10.245   5.116 -0.0820 -0.0407 -0.0317
    1DIPC   C4A21032   8.357  10.064   5.507  0.0572  0.1668 -0.2311
    1DIPC   C1B21033   7.941  10.955   4.752 -0.1442 -0.1313  0.2293
    1DIPC   D2B21034   7.844  11.060   5.145  0.3424  0.1018  0.2825
    1DIPC   D3B21035   8.048  11.048   5.624  0.0062 -0.0969  0.0176
    1DIPC   C4B21036   8.374  10.726   5.863  0.2618 -0.0311  0.1302
    1DIPC   NC321037  16.942  24.496   3.121 -0.0533  0.2066 -0.0879
    1DIPC   PO421038  17.364  24.622   3.265  0.0800 -0.2625  0.1951
    1DIPC   GL121039  17.184  24.568   3.654  0.1867 -0.0547  0.2035
    1DIPC   GL221040  16.879  24.505   3.582 -0.0788  0.0028  0.1097
    1DIPC   C1A21041  17.172  24.733   4.024  0.1179 -0.1541 -0.1977
    1DIPC   D2A21042  17.267  24.835   4.528  0.0991  0.1738  0.0789
    1DIPC   D3A21043  17.309  24.547   4.784 -0.4274  0.0560  0.1220
    1DIPC   C4A21044  17.147  24.467   5.141 -0.0911 -0.0126  0.4239
    1DIPC   C1B21045  16.694  24.337   3.930 -0.0799  0.2864  0.2690
    1DIPC   D2B21046  16.461  24.393   4.367  0.2157 -0.0155 -0.1131
    1DIPC   D3B21047  15.977  24.322   4.605 -0.0943 -0.3734  0.4230
    1DIPC   C4B21048  15.824  24.633   4.719  0.2439 -0.2774 -0.1505
    1DIPC   NC321049  10.143  24.773   2.387 -0.0369  0.0167 -0.0158
    1DIPC   PO421050  10.526  24.808   2.608 -0.0184 -0.0032  0.1057
    1DIPC   GL121051  10.288  24.856   2.982  0.3698  0.0472  0.0603
    1DIPC   GL221052  10.019  24.771   2.853 -0.0678 -0.0592  0.2914
    1DIPC   C1A21053  10.326  24.745   3.444  0.1315 -0.2638 -0.0506
    1DIPC   D2A21054  10.157  24.594   3.838  0.1525  0.1149  0.0120
    1DIPC   D3A21055  10.331  24.895   4.146  0.1908  0.4450  0.1226
    1DIPC   C4A21056  10.065  24.753   4.462 -0.0647 -0.1822  0.1407
    1DIPC   C1B21057   9.762  24.848   3.167 -0.1848  0.5636 -0.1937
    1DIPC   D2B21058   9.493  24.830   3.607 -0.3324  0.0109 -0.0356
    1DIPC   D3B21059   9.372  24.915   3.923 -0.3543 -0.0751 -0.1502
    1DIPC   C4B21060   9.314  24.685   4.192 -0.3089  0.2993  0.3292
    1DIPC   NC321061  20.239   8.017   2.691  0.2579 -0.0266 -0.1925
    1DIPC   PO421062  19.869   8.317   2.672 -0.1748 -0.1640 -0.0886
    1DIPC   GL121063  19.805   8.314   3.085  0.1560  0.2122 -0.1335
    1DIPC   GL221064  19.768   8.614   3.200  0.1311  0.0730 -0.1174
    1DIPC   C1A21065  19.613   8.357   3.538 -0.3593  0.0781 -0.1308
    1DIPC   D2A21066  19.500   8.061   3.803 -0.2371 -0.0550 -0.3577
    1DIPC   D3A21067  19.221   8.452   3.910  0.0744 -0.1499 -0.0917
    1DIPC   C4A21068  19.201   8.454   4.367 -0.0128  0.0643 -0.1636
    1DIPC   C1B21069  20.116   8.710   3.461  0.1915 -0.1858 -0.4040
    1DIPC   D2B21070  19.999   9.126   3.619  0.0534 -0.2308  0.2689
    1DIPC   D3B21071  20.122   8.996   4.120 -0.0419  0.0293 -0.2406
    1DIPC   C4B21072  19.846   9.036   4.473 -0.0080 -0.5094  0.1142
    1DIPC   NC321073  27.801  15.242   1.956 -0.0972  0.1274  0.0785
    1DIPC   PO421074  27.553  15.470   2.184 -0.1236 -0.0128 -0.1113
    1DIPC   GL121075  27.612  15.130   2.585  0.1732 -0.4136 -0.2827
    1DIPC   GL221076  27.624  15.423   2.746  0.4773 -0.0745  0.1375
    1DIPC   C1A21077  27.866  15.164   3.039 -0.1332  0.2141 -0.0945
    1DIPC   D2A21078  27.997  15.454   3.162  0.1054 -0.1331 -0.0101
    1DIPC   D3A21079  28.293  15.503   3.540  0.1180 -0.0712  0.1600
    1DIPC   C4A21080  28.286  15.876   3.789  0.2042 -0.0604  0.1437
    1DIPC   C1B21081  27.468  15.451   3.224  0.2268  0.1981 -0.1059
    1DIPC   D2B21082  27.771  15.389   3.601 -0.0661  0.2038 -0.3063
    1DIPC   D3B21083  27.720  15.040   3.881 -0.0694 -0.1645 -0.2629
    1DIPC   C4B21084  28.062  14.801   4.126  0.1313  0.0019  0.0049
    1DIPC   NC321085   6.120  28.194   3.154 -0.3183  0.2514 -0.6036
    1DIPC   PO421086   6.301  28.501   3.382  0.0762 -0.0394 -0.0451
    1DIPC   GL121087   6.373  28.430   3.795  0.1869  0.2381 -0.0294
    1DIPC   GL221088   6.144  28.303   3.925 -0.0290 -0.3807  0.0576
    1DIPC   C1A21089   6.617  28.660   4.115 -0.1141  0.0402  0.4157
    1DIPC   D2A21090   7.044  28.720   4.270 -0.3763  0.0106 -0.1184
    1DIPC   D3A21091   7.238  28.874   4.636  0.3391 -0.1573  0.0517
    1DIPC   C4A21092   7.651  28.615   4.766  0.2955 -0.2300  0.4005
    1DIPC   C1B21093   5.998  27.949   4.135 -0.0437  0.1759  0.0929
    1DIPC   D2B21094   6.052  27.739   4.474 -0.2132 -0.0624 -0.1302
    1DIPC   D3B21095   6.260  27.393   4.377  0.3835 -0.0248  0.1270
    1DIPC   C4B21096   6.661  27.345   4.354 -0.1694  0.3340 -0.4487
    1DIPC   NC321097   0.238  13.495   2.151  0.2450  0.1385 -0.3740
    1DIPC   PO421098   0.110  13.997   2.256 -0.4103  0.2615  0.1998
    1DIPC   GL121099   0.115  13.901   2.606  0.1148 -0.2685  0.1830
    1DIPC   GL221100   0.480  13.903   2.860  0.0417 -0.0489 -0.4339
    1DIPC   C1A21101  -0.104  14.104   2.976 -0.4095  0.0559  0.1700
    1DIPC   D2A21102  -0.424  14.296   3.141  0.0904 -0.1652  0.4216
    1DIPC   D3A21103  -0.407  14.089   3.570 -0.2745 -0.0357  0.1611
    1DIPC   C4A21104  -0.669  14.213   3.897 -0.0106 -0.3159 -0.0302
    1DIPC   C1B21105   0.471  14.022   3.308  0.5718 -0.1193  0.0279
    1DIPC   D2B21106   0.959  14.049   3.641 -0.0538  0.2413 -0.0074
    1DIPC   D3B21107   1.085  14.374   3.698  0.1382 -0.1652 -0.1115
    1DIPC   C4B21108   1.331  14.694   3.370 -0.0732 -0.3480  0.1559
    1DIPC   NC321109   5.916   2.020   3.638 -0.1815  0.1736 -0.5430
    1DIPC   PO421110   5.889   1.616   3.507  0.0527  0.3504 -0.3094
    1DIPC   GL121111   5.733   1.540   3.912  0.0567  0.2899  0.2263
    1DIPC   GL221112   5.427   1.654   4.067  0.0420  0.0873 -0.0395
    1DIPC   C1A21113   5.860   1.378   4.403  0.1804 -0.0922 -0.0318
    1DIPC   D2A21114   5.876   1.130   4.830  0.0531  0.0599  0.0250
    1DIPC   D3A21115   6.280   1.065   5.039  0.2300  0.2679  0.0573
    1DIPC   C4A21116   6.571   0.770   4.820  0.0358 -0.1092  0.0952
    1DIPC   C1B21117   5.075   1.887   4.498 -0.0836  0.1616  0.1363
    1DIPC   D2B21118   4.956   2.157   4.803  0.0163  0.0200  0.2054
    1DIPC   D3B21119   5.243   2.368   5.108 -0.0538  0.0444 -0.0110
    1DIPC   C4B21120   5.642   2.388   5.140 -0.2659 -0.1390  0.3094
    1DIPC   NC321121   3.439   9.679   2.827 -0.0267  0.0853 -0.1295
    1DIPC   PO421122   3.409   9.277   2.818  0.1862  0.3906  0.0473
    1DIPC   GL121123   3.506   9.022   3.147  0.3321  0.0900 -0.0849
    1DIPC   GL221124   3.534   8.686   3.236 -0.2905 -0.0141  0.1861
    1DIPC   C1A21125   3.750   9.128   3.610 -0.1003 -0.1046  0.3048
    1DIPC   D2A21126   3.814   9.359   4.001 -0.1402  0.0949 -0.1180
    1DIPC   D3A21127   3.635   9.224   4.447 -0.2051 -0.1963 -0.3555
    1DIPC   C4A21128   3.654   8.743   4.500  0.0369  0.0079 -0.1658
    1DIPC   C1B21129   3.271   8.710   3.565  0.1114 -0.2897  0.0615
    1DIPC   D2B21130   2.940   8.875   3.793 -0.0085  0.0709 -0.1973
    1DIPC   D3B21131   3.172   8.826   4.267 -0.4038  0.1901  0.0611
    1DIPC   C4B21132   2.989   8.958   4.514  0.0589 -0.1184 -0.0200
    1DIPC   NC321133  20.223  22.580   2.331 -0.1633  0.2673 -0.2944
    1DIPC   PO421134  20.298  22.258   2.620  0.2080  0.0353  0.1153
    1DIPC   GL121135  20.238  21.869   2.867  0.1681 -0.3141 -0.1005
    1DIPC   GL221136  19.815  21.895   2.787  0.1311  0.1060  0.0404
    1DIPC   C1A21137  20.245  21.557   3.202 -0.0594  0.0138 -0.0158
    1DIPC   D2A21138  20.522  21.703   3.575 -0.2226  0.2716 -0.0500
    1DIPC   D3A21139  20.691  21.765   3.987 -0.0276  0.1192 -0.0302
    1DIPC   C4A21140  20.736  21.444   4.279 -0.0009 -0.0049 -0.1382
    1DIPC   C1B21141  19.888  21.921   3.208  0.0462 -0.2347  0.1752
    1DIPC   D2B21142  20.152  22.100   3.394 -0.1619 -0.1727 -0.3042
    1DIPC   D3B21143  20.537  22.056   3.223  0.2223  0.1041 -0.1111
    1DIPC   C4B21144  20.957  22.131   3.446  0.3435 -0.2533  0.0179
    1DIPC   NC321145  27.453  28.725   2.771  0.0383 -0.2611  0.1249
    1DIPC   PO421146  26.972  28.649   2.816  0.2288 -0.0029  0.0852
    1DIPC   GL121147  26.967  28.229   3.152  0.2072 -0.0452  0.1229
    1DIPC   GL221148  27.275  28.088   3.391  0.0796 -0.1519  0.2369
    1DIPC   C1A21149  26.639  28.110   3.440  0.2267 -0.1124  0.1675
    1DIPC   D2A21150  26.460  28.082   3.755  0.0670 -0.2406  0.0757
    1DIPC   D3A21151  26.685  28.173   4.180 -0.0903  0.1459 -0.0956
    1DIPC   C4A21152  26.680  27.902   4.629 -0.1198 -0.0850  0.3281
    1DIPC   C1B21153  27.082  27.845   3.711 -0.0188 -0.2104  0.2964
    1DIPC   D2B21154  27.097  27.687   4.166  0.0045  0.0629 -0.1636
    1DIPC   D3B21155  27.178  27.901   4.587  0.0170 -0.2246 -0.0308
    1DIPC   C4B21156  27.074  27.840   4.990 -0.1461 -0.0658  0.0318
    1DIPC   NC321157   3.846  29.405   3.075 -0.0284  0.3311 -0.2141
    1DIPC   PO421158   3.827  29.155   3.530 -0.0053 -0.1048  0.1336
    1DIPC   GL121159   3.923  28.886   3.916  0.0560  0.0246 -0.0583
    1DIPC   GL221160   4.034  28.536   3.979 -0.0086  0.0518 -0.0004
    1DIPC   C1A21161   3.730  28.824   4.396 -0.1494 -0.0409 -0.1833
    1DIPC   D2A21162   3.516  28.900   4.789 -0.3009  0.2030 -0.3999
    1DIPC   D3A21163   3.817  29.307   4.859  0.0105  0.0126  0.1337
    1DIPC   C4A21164   3.704  29.705   5.004  0.1827  0.3141  0.4406
    1DIPC   C1B21165   4.177  28.221   4.201 -0.1139 -0.0357 -0.2923
    1DIPC   D2B21166   4.133  27.947   4.634 -0.1857 -0.1946 -0.2197
    1DIPC   D3B21167   4.535  27.949   4.902 -0.1293 -0.2046 -0.3583
    1DIPC   C4B21168   4.914  27.815   4.737  0.0060 -0.0971 -0.4582
    1DIPC   NC321169  28.285  14.608   1.713  0.0700 -0.0458  0.0442
    1DIPC   PO421170  28.295  15.027   1.878 -0.2925 -0.1991  0.1262
    1DIPC   GL121171  28.202  14.892   2.294 -0.1177  0.0412  0.0512
    1DIPC   GL221172  28.462  14.738   2.322  0.0602 -0.1247  0.5199
    1DIPC   C1A21173  28.090  14.867   2.720  0.2229  0.2267  0.1926
    1DIPC   D2A21174  27.890  14.707   3.145  0.0907  0.5166  0.2591
    1DIPC   D3A21175  28.401  14.658   3.205 -0.2543 -0.1581 -0.0994
    1DIPC   C4A21176  28.680  14.719   3.560  0.0209  0.2596 -0.0990
    1DIPC   C1B21177  28.535  14.656   2.700  0.0592  0.0695  0.0754
    1DIPC   D2B21178  28.894  14.650   3.125 -0.0423  0.2831 -0.2140
    1DIPC   D3B21179  28.770  14.268   3.239  0.1362 -0.1642  0.0406
    1DIPC   C4B21180  28.865  13.974   2.945  0.0384  0.0558 -0.0912
    1DIPC   NC321181   2.977  29.175   3.761  0.1153  0.2842  0.0120
    1DIPC   PO421182   3.368  28.955   3.672  0.1017  0.1944  0.1469
    1DIPC   GL121183   3.458  29.217   3.998 -0.0912  0.1938 -0.0229
    1DIPC   GL221184   3.226  28.954   4.205 -0.2514  0.2165 -0.1102
    1DIPC   C1A21185   3.571  29.307   4.391  0.1772 -0.1335  0.2332
    1DIPC   D2A21186   3.358  29.510   4.651  0.2389 -0.3077 -0.0420
    1DIPC   D3A21187   3.280  29.410   5.064 -0.0352  0.1422 -0.1157
    1DIPC   C4A21188   3.182  29.269   5.453  0.2505  0.0331 -0.2302
    1DIPC   C1B21189   3.142  28.889   4.508  0.1545 -0.2008 -0.4374
    1DIPC   D2B21190   3.041  28.888   4.942 -0.0187  0.1446  0.2664
    1DIPC   D3B21191   3.240  28.437   4.756  0.0859  0.3701  0.0598
    1DIPC   C4B21192   3.742  28.336   4.487  0.1828  0.1589  0.0222
    1DIPC   NC321193  15.724   6.896   3.406  0.1640  0.3445  0.0964
    1DIPC   PO421194  16.085   7.333   3.501  0.0005 -0.0000 -0.2177
    1DIPC   GL121195  16.491   7.584   3.901 -0.0338  0.1871 -0.1236
    1DIPC   GL221196  16.802   7.506   3.726  0.0281  0.0636  0.3748
    1DIPC   C1A21197  16.706   7.766   4.242 -0.1340 -0.0364 -0.0451
    1DIPC   D2A21198  16.736   7.894   4.727  0.0396  0.0471  0.1469
    1DIPC   D3A21199  16.409   7.834   4.961  0.0333 -0.2501  0.1980
    1DIPC   C4A21200  16.417   7.816   5.468 -0.1040  0.0043 -0.2028
    1DIPC   C1B21201  17.178   7.587   4.051 -0.2799 -0.4095  0.1443
    1DIPC   D2B21202  17.369   7.268   4.389  0.3953 -0.1030  0.1154
    1DIPC   D3B21203  17.773   7.522   4.417  0.1239 -0.0533 -0.3602
    1DIPC   C4B21204  17.844   7.926   4.585 -0.1886  0.0047  0.1616
    1DIPC   NC321205  23.195  28.862   2.708 -0.0117 -0.0795  0.1459
    1DIPC   PO421206  23.044  28.918   3.134  0.2273  0.1302  0.0673
    1DIPC   GL121207  22.854  28.941   3.616  0.0686 -0.2016 -0.0879
    1DIPC   GL221208  22.929  28.697   3.584  0.2047 -0.2546  0.0071
    1DIPC   C1A21209  22.682  28.788   4.006  0.1652 -0.0164  0.0010
    1DIPC   D2A21210  22.572  28.798   4.419 -0.1711 -0.2880  0.0998
    1DIPC   D3A21211  22.363  29.227   4.488  0.0524 -0.0873  0.2484
    1DIPC   C4A21212  22.214  29.554   4.247 -0.1458  0.2273  0.0309
    1DIPC   C1B21213  22.962  28.333   3.827  0.1916 -0.3973  0.0584
    1DIPC   D2B21214  22.782  28.243   4.237 -0.1335 -0.1089 -0.2036
    1DIPC   D3B21215  22.474  28.332   4.514  0.0236 -0.0294  0.1636
    1DIPC   C4B21216  22.356  28.005   4.821 -0.0152 -0.2419 -0.0474
    1DIPC   NC321217  11.871  22.400   2.529 -0.0762  0.1269 -0.0251
    1DIPC   PO421218  12.375  22.553   2.556  0.1810 -0.1503 -0.1593
    1DIPC   GL121219  12.301  22.242   2.881 -0.2928  0.0570  0.2769
    1DIPC   GL221220  12.168  22.506   3.033 -0.0592  0.0139  0.1592
    1DIPC   C1A21221  12.464  22.076   3.170 -0.0742 -0.1300 -0.0449
    1DIPC   D2A21222  12.872  21.961   3.328  0.1156 -0.1395  0.1875
    1DIPC   D3A21223  13.001  21.987   3.786 -0.1406  0.0770  0.2249
    1DIPC   C4A21224  12.954  21.895   4.277  0.0723  0.3562 -0.2887
    1DIPC   C1B21225  12.202  22.424   3.438 -0.2435 -0.2402  0.1260
    1DIPC   D2B21226  11.917  22.312   3.804  0.0953  0.0301 -0.2980
    1DIPC   D3B21227  11.853  22.423   4.188  0.1084 -0.0511 -0.0723
    1DIPC   C4B21228  11.395  22.390   4.323 -0.4009 -0.0711 -0.1289
    1DIPC   NC321229  21.430   4.552   2.796 -0.3923 -0.2043  0.0750
    1DIPC   PO421230  21.751   4.926   3.001 -0.4054  0.1882  0.3545
    1DIPC   GL121231  21.709   4.886   3.429  0.0248 -0.0585 -0.0226
    1DIPC   GL221232  21.703   4.544   3.473 -0.0069  0.0586 -0.1194
    1DIPC   C1A21233  21.607   5.255   3.707  0.1657  0.0674  0.0249
    1DIPC   D2A21234  21.388   5.525   3.995 -0.0058 -0.1020 -0.1015
    1DIPC   D3A21235  21.446   5.723   4.446  0.0391  0.0903  0.0739
    1DIPC   C4A21236  21.000   5.749   4.680  0.0947  0.1743  0.1603
    1DIPC   C1B21237  22.029   4.241   3.517  0.1481  0.0712  0.0995
    1DIPC   D2B21238  22.589   4.284   3.486 -0.0642  0.3491 -0.0911
    1DIPC   D3B21239  22.257   4.625   3.720  0.0219  0.0165  0.1783
    1DIPC   C4B21240  22.087   5.138   3.689 -0.0495  0.0083 -0.0915
    1DIPC   NC321241  12.233  23.980   3.031  0.3809 -0.3525 -0.0274
    1DIPC   PO421242  12.640  23.765   2.817  0.0200  0.0651  0.2671
    1DIPC   GL121243  12.704  23.354   3.142  0.0258  0.1653 -0.1021
    1DIPC   GL221244  12.330  23.342   3.248 -0.1293  0.1507  0.0774
    1DIPC   C1A21245  12.698  23.133   3.545 -0.1407 -0.1431  0.0910
    1DIPC   D2A21246  12.750  22.711   3.731  0.1789  0.0496  0.1585
    1DIPC   D3A21247  12.722  22.943   4.113 -0.1165  0.0753  0.0660
    1DIPC   C4A21248  13.013  23.073   4.397 -0.0065 -0.0066  0.1491
    1DIPC   C1B21249  12.113  23.295   3.575 -0.2982  0.3951  0.0875
    1DIPC   D2B21250  12.337  23.206   4.000 -0.4165  0.2634  0.1902
    1DIPC   D3B21251  12.660  23.456   4.132  0.0722  0.1375  0.1151
    1DIPC   C4B21252  13.077  23.386   3.853 -0.1854  0.2232 -0.0349
    1DIPC   NC321253   9.414   7.299   3.674  0.2298 -0.0703  0.0104
    1DIPC   PO421254   9.627   6.989   3.433  0.0968  0.1332  0.0849
    1DIPC   GL121255   9.510   6.761   3.838  0.0867  0.1797 -0.0366
    1DIPC   GL221256   9.709   6.513   3.958  0.0239 -0.0853 -0.1964
    1DIPC   C1A21257   9.348   6.759   4.271 -0.0523  0.2490  0.7357
    1DIPC   D2A21258   9.532   6.829   4.592  0.0682  0.2281 -0.2547
    1DIPC   D3A21259   9.306   6.781   4.978 -0.1603 -0.4116  0.1756
    1DIPC   C4A21260   9.086   6.402   5.145  0.0289  0.1517  0.1224
    1DIPC   C1B21261   9.897   6.684   4.315 -0.0751 -0.0418  0.1488
    1DIPC   D2B21262  10.033   6.579   4.750  0.1101  0.0735  0.0980
    1DIPC   D3B21263  10.458   6.674   4.694 -0.1404  0.2020  0.3286
    1DIPC   C4B21264  10.594   6.988   4.968  0.4362  0.1946 -0.0382
    1DIPC   NC321265  13.366   5.474   4.111  0.2608  0.1567  0.3676
    1DIPC   PO421266  13.658   5.876   4.162 -0.2297  0.1843 -0.2611
    1DIPC   GL121267  13.253   5.835   4.380 -0.0039 -0.1761 -0.1083
    1DIPC   GL221268  13.428   5.600   4.551  0.1469 -0.0714  0.0821
    1DIPC   C1A21269  12.869   5.643   4.507 -0.0485  0.1434  0.1708
    1DIPC   D2A21270  12.454   5.401   4.578 -0.2832  0.0272 -0.3008
    1DIPC   D3A21271  12.460   5.672   4.237 -0.2819  0.1482  0.0518
    1DIPC   C4A21272  12.279   6.112   4.255  0.1432  0.0970 -0.2068
    1DIPC   C1B21273  13.284   5.810   4.865 -0.2950  0.4278 -0.2263
    1DIPC   D2B21274  13.026   6.142   4.849 -0.3452 -0.2214  0.2204
    1DIPC   D3B21275  12.883   6.018   5.161 -0.2302  0.3052 -0.0190
    1DIPC   C4B21276  12.431   5.923   5.170 -0.2342  0.0810  0.1380
    1DIPC   NC321277  17.674   2.104   3.922 -0.0489  0.0650 -0.3558
    1DIPC   PO421278  17.653   2.569   3.866  0.0456 -0.2799 -0.0707
    1DIPC   GL121279  17.646   2.884   4.297  0.2102 -0.2044 -0.0880
    1DIPC   GL221280  17.859   3.219   4.323  0.0070  0.0460 -0.0029
    1DIPC   C1A21281  17.759   2.933   4.692 -0.1569  0.1180 -0.0569
    1DIPC   D2A21282  17.669   2.855   5.176  0.1789  0.0619 -0.0651
    1DIPC   D3A21283  18.140   2.753   5.487 -0.2620  0.1885 -0.0654
    1DIPC   C4A21284  18.422   3.239   5.519  0.0313  0.1429 -0.1803
    1DIPC   C1B21285  17.784   3.435   4.695  0.1591  0.1911 -0.3313
    1DIPC   D2B21286  17.534   3.508   5.113  0.2983 -0.1434 -0.3158
    1DIPC   D3B21287  17.266   3.183   5.290 -0.0594 -0.0722 -0.0729
    1DIPC   C4B21288  17.301   3.067   5.659 -0.1420 -0.1156 -0.0811
    1DIPC   NC321289  15.840  25.849   2.607 -0.1804  0.1707  0.1918
    1DIPC   PO421290  16.277  25.820   2.801  0.1468  0.1042 -0.0014
    1DIPC   GL121291  16.386  25.956   3.270 -0.0614 -0.0153 -0.0248
    1DIPC   GL221292  16.133  25.710   3.420  0.1175  0.1907  0.0945
    1DIPC   C1A21293  16.429  25.884   3.754 -0.1444 -0.0383 -0.1721
    1DIPC   D2A21294  16.604  25.781   4.067  0.0160  0.0962 -0.1366
    1DIPC   D3A21295  16.922  25.553   3.756 -0.1184  0.1748 -0.0363
    1DIPC   C4A21296  16.727  25.171   3.726 -0.3770 -0.1573 -0.0364
    1DIPC   C1B21297  15.886  25.859   3.745  0.2529 -0.1463 -0.0646
    1DIPC   D2B21298  15.532  26.014   4.005  0.2480  0.0216 -0.0681
    1DIPC   D3B21299  15.147  26.035   4.277 -0.3755  0.2084  0.0749
    1DIPC   C4B21300  15.157  25.819   4.605  0.0385  0.1651  0.0906
    1DIPC   NC321301   0.934  14.537   1.759  0.2229  0.1085 -0.1580
    1DIPC   PO421302   1.124  14.876   1.997  0.1461 -0.0758  0.1266
    1DIPC   GL121303   1.139  15.178   2.280 -0.0649  0.2453 -0.0989
    1DIPC   GL221304   1.293  15.412   2.252  0.0212  0.3715 -0.0817
    1DIPC   C1A21305   1.213  15.259   2.733 -0.0672  0.1102 -0.0213
    1DIPC   D2A21306   1.408  15.072   3.031  0.1629  0.0723 -0.1493
    1DIPC   D3A21307   1.805  15.254   3.217  0.0059 -0.0415  0.0085
    1DIPC   C4A21308   1.944  15.025   3.559 -0.1949 -0.1371 -0.2423
    1DIPC   C1B21309   1.164  15.780   2.588  0.0408  0.2068 -0.1378
    1DIPC   D2B21310   1.222  16.052   2.958 -0.0785 -0.2750  0.0136
    1DIPC   D3B21311   1.016  16.461   3.128  0.4220  0.2681  0.0856
    1DIPC   C4B21312   0.875  16.460   3.569 -0.0827  0.0698 -0.0386
    1DIPC   NC321313  25.366   3.073   2.182  0.1294  0.3299  0.0360
    1DIPC   PO421314  25.399   3.367   2.580  0.0848 -0.1705  0.2013
    1DIPC   GL121315  25.735   3.295   2.845  0.0941 -0.2003  0.0102
    1DIPC   GL221316  25.747   3.020   2.944  0.1314  0.0227 -0.1346
    1DIPC   C1A21317  25.969   3.505   3.134  0.0022  0.0752 -0.2178
    1DIPC   D2A21318  25.894   3.533   3.717  0.2394 -0.2826  0.3061
    1DIPC   D3A21319  26.180   3.600   4.011  0.0463 -0.1297 -0.2320
    1DIPC   C4A21320  25.856   3.927   4.155 -0.3697  0.0869  0.3855
    1DIPC   C1B21321  25.809   2.861   3.387 -0.2162 -0.0125 -0.0710
    1DIPC   D2B21322  25.582   3.121   3.647 -0.2270 -0.2404 -0.0027
    1DIPC   D3B21323  25.417   3.469   3.454  0.1852 -0.2023 -0.1504
    1DIPC   C4B21324  25.120   3.678   3.688 -0.0653 -0.1694  0.0690
    1DIPC   NC321325  19.675  23.098   2.879  0.2364  0.2383  0.1240
    1DIPC   PO421326  19.603  23.536   3.005  0.3952  0.2756  0.0398
    1DIPC   GL121327  19.719  23.485   3.389  0.2361 -0.0402  0.0701
    1DIPC   GL221328  19.490  23.332   3.452 -0.1533  0.2300 -0.2018
    1DIPC   C1A21329  19.786  23.793   3.755  0.1820 -0.4035  0.1039
    1DIPC   D2A21330  20.066  23.924   4.107 -0.0588 -0.0254 -0.2209
    1DIPC   D3A21331  19.942  23.824   4.514  0.1608 -0.0210 -0.0453
    1DIPC   C4A21332  19.954  24.057   4.881 -0.2770 -0.3204 -0.0764
    1DIPC   C1B21333  19.631  23.268   3.811  0.2056 -0.0552  0.1723
    1DIPC   D2B21334  19.283  23.245   4.188 -0.0546 -0.0465 -0.0059
    1DIPC   D3B21335  19.419  23.419   4.644  0.3081 -0.0920 -0.2701
    1DIPC   C4B21336  19.691  23.618   4.861 -0.0332  0.4665 -0.1734
    1DIPC   NC321337   5.142   6.981   3.189 -0.3864  0.0535 -0.0530
    1DIPC   PO421338   5.277   7.392   3.141 -0.1900 -0.1651 -0.0590
    1DIPC   GL121339   5.185   7.205   3.589  0.1180  0.0096  0.0054
    1DIPC   GL221340   5.369   6.911   3.795 -0.0198 -0.1810  0.3136
    1DIPC   C1A21341   4.873   7.108   3.875  0.0551  0.2390  0.2173
    1DIPC   D2A21342   4.828   6.958   4.301  0.1113  0.1654  0.3553
    1DIPC   D3A21343   4.905   6.765   4.617  0.1599 -0.0170  0.0340
    1DIPC   C4A21344   4.561   6.815   4.962 -0.1613 -0.0683  0.1953
    1DIPC   C1B21345   5.338   6.987   4.241  0.3285 -0.1251  0.3049
    1DIPC   D2B21346   5.292   7.214   4.574  0.1339 -0.2026  0.1418
    1DIPC   D3B21347   5.171   7.146   5.093 -0.0117  0.0387 -0.1135
    1DIPC   C4B21348   5.049   7.559   5.218  0.0368  0.2796  0.2898
    1DIPC   NC321349   5.703   0.648   3.805 -0.0521  0.1771 -0.1398
    1DIPC   PO421350   5.301   0.558   3.969 -0.0291 -0.1435  0.0416
    1DIPC   GL121351   5.261   0.523   4.321  0.0326  0.1857 -0.4002
    1DIPC   GL221352   4.886   0.511   4.448 -0.0382 -0.1115 -0.0740
    1DIPC   C1A21353   5.607   0.269   4.519  0.2064  0.0395 -0.0762
    1DIPC   D2A21354   5.505   0.054   4.829 -0.1649  0.1121 -0.0106
    1DIPC   D3A21355   5.907   0.201   4.958  0.2450  0.0467  0.2840
    1DIPC   C4A21356   6.083   0.331   4.629  0.0220 -0.0045  0.0007
    1DIPC   C1B21357   5.119   0.468   4.790 -0.1622  0.1331 -0.0194
    1DIPC   D2B21358   5.559   0.553   5.005  0.1698  0.2474 -0.0596
    1DIPC   D3B21359   5.927   0.682   5.107  0.3164  0.0786 -0.0743
    1DIPC   C4B21360   6.235   0.829   5.475 -0.1173 -0.0449 -0.2277
    1DIPC   NC321361  25.016  21.578   2.513  0.0685 -0.1822 -0.1375
    1DIPC   PO421362  25.450  21.629   2.390  0.2888  0.0342 -0.3182
    1DIPC   GL121363  25.450  21.563   2.726  0.0540  0.0577 -0.1287
    1DIPC   GL221364  25.712  21.308   2.856 -0.0088 -0.1981 -0.0686
    1DIPC   C1A21365  25.202  21.802   3.084 -0.3158 -0.0855  0.0370
    1DIPC   D2A21366  25.194  22.138   3.514  0.0245  0.4257  0.1009
    1DIPC   D3A21367  24.886  22.023   3.846 -0.1620 -0.1313  0.1368
    1DIPC   C4A21368  24.954  22.196   4.274 -0.2236  0.2631 -0.0099
    1DIPC   C1B21369  25.428  21.400   3.199 -0.0456  0.3244  0.0832
    1DIPC   D2B21370  25.229  21.552   3.536 -0.1371 -0.2666 -0.0407
    1DIPC   D3B21371  25.107  21.297   3.869  0.1507 -0.1454 -0.0226
    1DIPC   C4B21372  25.367  21.210   4.122 -0.0910  0.2696  0.0260
    1DIPC   NC321373  26.889  18.869   1.647  0.0129 -0.1306  0.0147
    1DIPC   PO421374  26.771  18.477   1.890  0.0446 -0.0130  0.2358
    1DIPC   GL121375  26.469  18.388   2.101  0.0902  0.1534  0.0942
    1DIPC   GL221376  26.388  18.059   2.110  0.2853  0.1850  0.0967
    1DIPC   C1A21377  26.573  18.332   2.466  0.2474 -0.0099  0.1856
    1DIPC   D2A21378  26.887  18.333   2.799  0.0899  0.1211 -0.1711
    1DIPC   D3A21379  26.766  18.840   2.665  0.1797 -0.0207 -0.2333
    1DIPC   C4A21380  26.755  19.252   2.463  0.0829  0.1509 -0.0938
    1DIPC   C1B21381  26.293  17.836   2.527 -0.2245 -0.3411 -0.0624
    1DIPC   D2B21382  26.403  17.507   2.727 -0.2504  0.3031 -0.3405
    1DIPC   D3B21383  26.228  17.266   3.091 -0.0229  0.0821 -0.4321
    1DIPC   C4B21384  26.024  16.888   3.219  0.2399  0.0804 -0.1441
    1DIPC   NC321385  11.561   4.045   3.719  0.0042  0.3303 -0.0960
    1DIPC   PO421386  11.941   4.358   3.690 -0.3349  0.1623  0.0241
    1DIPC   GL121387  12.043   4.660   4.039  0.1851 -0.0896  0.0822
    1DIPC   GL221388  12.390   4.639   4.112  0.0980  0.1776  0.0280
    1DIPC   C1A21389  11.887   4.622   4.463 -0.1735 -0.1319  0.4453
    1DIPC   D2A21390  11.814   4.767   4.825 -0.0619 -0.1288  0.2375
    1DIPC   D3A21391  11.773   4.391   5.091 -0.2194 -0.0662  0.0157
    1DIPC   C4A21392  11.630   4.160   5.425  0.1670 -0.2863 -0.2524
    1DIPC   C1B21393  12.371   4.806   4.597  0.2078 -0.2531 -0.0373
    1DIPC   D2B21394  12.213   4.725   5.088  0.0535  0.3576  0.0515
    1DIPC   D3B21395  12.343   5.139   5.030  0.0455  0.0071  0.2083
    1DIPC   C4B21396  12.186   5.472   5.076 -0.1024 -0.0486 -0.1743
    1DIPC   NC321397   9.334  28.657   3.648  0.2016  0.2601 -0.0635
    1DIPC   PO421398   9.834  28.622   3.522  0.4552 -0.0756 -0.1992
    1DIPC   GL121399  10.161  28.678   3.834 -0.3668  0.2579  0.0548
    1DIPC   GL221400  10.268  28.896   3.782  0.1439 -0.0582 -0.3292
    1DIPC   C1A21401  10.305  28.448   4.169  0.1852  0.0591  0.1095
    1DIPC   D2A21402  10.205  28.040   4.540  0.1392  0.0851  0.1810
    1DIPC   D3A21403  10.244  28.393   4.851  0.0401 -0.1158 -0.0380
    1DIPC   C4A21404  10.456  28.269   5.268  0.0859 -0.1488  0.0103
    1DIPC   C1B21405  10.112  28.947   4.262  0.0244  0.0865  0.3203
    1DIPC   D2B21406   9.783  28.898   4.391  0.0705  0.0246 -0.2562
    1DIPC   D3B21407   9.913  28.781   4.858 -0.1677  0.0881 -0.1087
    1DIPC   C4B21408   9.840  29.028   5.183  0.0794  0.1027  0.0313
    1DIPC   NC321409  10.063   4.487   2.722  0.2769 -0.0368  0.0427
    1DIPC   PO421410  10.016   4.630   3.100 -0.3125  0.2634  0.0679
    1DIPC   GL121411   9.987   4.705   3.572  0.0827 -0.1514  0.1671
    1DIPC   GL221412   9.746   4.508   3.673 -0.1357  0.0115 -0.0166
    1DIPC   C1A21413  10.043   4.930   3.959  0.1928  0.0963  0.2549
    1DIPC   D2A21414   9.814   5.197   4.266  0.0389  0.2038 -0.0294
    1DIPC   D3A21415   9.773   5.071   4.741  0.1159 -0.4100  0.0395
    1DIPC   C4A21416  10.057   5.232   5.066 -0.1895 -0.2124  0.2617
    1DIPC   C1B21417   9.776   4.280   4.103  0.3332  0.1331 -0.2732
    1DIPC   D2B21418   9.670   4.277   4.571 -0.3008  0.2111  0.3075
    1DIPC   D3B21419  10.050   4.119   4.585  0.0290  0.2305  0.2606
    1DIPC   C4B21420  10.143   4.060   4.974 -0.1585 -0.0249  0.1454
    1DIPC   NC321421  15.848  22.550   2.197  0.1585  0.1862  0.0849
    1DIPC   PO421422  16.298  22.508   2.472  0.0131  0.1157  0.0862
    1DIPC   GL121423  16.419  22.423   2.952  0.1814  0.0686  0.3049
    1DIPC   GL221424  16.168  22.429   3.155 -0.0077  0.0383 -0.1703
    1DIPC   C1A21425  16.747  22.410   3.314  0.1747  0.2125 -0.3641
    1DIPC   D2A21426  17.078  22.449   3.623 -0.2257 -0.1913 -0.0836
    1DIPC   D3A21427  17.572  22.367   3.589  0.0469  0.2045 -0.2922
    1DIPC   C4A21428  18.041  22.542   3.475 -0.1254  0.0860  0.2115
    1DIPC   C1B21429  15.759  22.515   3.238  0.3575 -0.0762 -0.0103
    1DIPC   D2B21430  15.451  22.335   3.343  0.1923  0.4012 -0.1603
    1DIPC   D3B21431  15.788  22.381   3.739 -0.0375  0.1949  0.1277
    1DIPC   C4B21432  15.932  22.168   4.031  0.1382 -0.0347  0.1681
    1DIPC   NC321433  26.740   1.430   2.501 -0.2390  0.0102 -0.3075
    1DIPC   PO421434  26.535   1.755   2.645  0.1030 -0.0510 -0.1963
    1DIPC   GL121435  26.518   1.940   3.143  0.0915 -0.1438  0.1486
    1DIPC   GL221436  26.829   2.068   3.246  0.1226  0.1807 -0.0422
    1DIPC   C1A21437  26.435   1.843   3.602 -0.1134  0.0448  0.2038
    1DIPC   D2A21438  26.430   1.832   4.075 -0.0885 -0.1541  0.0304
    1DIPC   D3A21439  26.473   2.237   4.169 -0.0499  0.0163  0.3276
    1DIPC   C4A21440  26.520   2.420   4.590 -0.1980 -0.3618  0.0437
    1DIPC   C1B21441  26.871   2.016   3.653 -0.2495 -0.1120  0.0910
    1DIPC   D2B21442  27.103   1.962   4.131 -0.4650 -0.2786  0.1663
    1DIPC   D3B21443  26.921   2.431   3.966  0.1004  0.2150 -0.2410
    1DIPC   C4B21444  26.538   2.756   4.254 -0.0789 -0.0302 -0.1747
    1DIPC   NC321445   4.529  12.958   2.397 -0.0081 -0.1379  0.3414
    1DIPC   PO421446   4.386  12.475   2.400  0.1327  0.0392 -0.0684
    1DIPC   GL121447   4.371  12.716   2.828 -0.4423 -0.1534  0.0787
    1DIPC   GL221448   4.342  12.455   3.179 -0.1917  0.3628 -0.1133
    1DIPC   C1A21449   4.280  12.959   3.167 -0.1228  0.1870  0.2438
    1DIPC   D2A21450   4.053  12.859   3.618 -0.0955  0.0618 -0.3488
    1DIPC   D3A21451   4.456  12.637   3.618  0.0854 -0.0435  0.1279
    1DIPC   C4A21452   4.877  12.746   3.466  0.0710  0.0895 -0.0248
    1DIPC   C1B21453   4.554  12.151   3.416 -0.0291  0.0436 -0.0839
    1DIPC   D2B21454   4.705  11.755   3.614  0.2077 -0.1684 -0.0451
    1DIPC   D3B21455   4.313  11.683   3.713 -0.4028  0.1233  0.0286
    1DIPC   C4B21456   4.017  11.435   3.916 -0.0674  0.2423  0.2372
    1DIPC   NC321457  22.653   5.565   2.763 -0.0388  0.0979 -0.0588
    1DIPC   PO421458  22.388   5.517   3.047  0.1805 -0.1205  0.2985
    1DIPC   GL121459  22.693   5.639   3.233 -0.1692 -0.0292 -0.0990
    1DIPC   GL221460  22.997   5.504   3.403  0.3614  0.3216 -0.0361
    1DIPC   C1A21461  22.682   6.012   3.462 -0.2357  0.0777 -0.2395
    1DIPC   D2A21462  22.729   6.184   3.940  0.0345  0.3719 -0.0788
    1DIPC   D3A21463  23.015   5.935   4.113 -0.0194  0.2076  0.0161
    1DIPC   C4A21464  23.229   6.179   4.433  0.1729 -0.1153 -0.1686
    1DIPC   C1B21465  22.772   5.578   3.783 -0.0777 -0.1215  0.2288
    1DIPC   D2B21466  22.840   5.416   4.226  0.0539  0.1204  0.2335
    1DIPC   D3B21467  22.703   5.158   4.638  0.1457 -0.0428  0.3310
    1DIPC   C4B21468  22.315   5.065   4.752  0.1221 -0.3622 -0.1242
    1DIPC   NC321469   0.606  21.378   1.991  0.1699 -0.0971 -0.1457
    1DIPC   PO421470   0.674  21.788   1.854 -0.1122 -0.2851  0.1981
    1DIPC   GL121471   0.687  21.711   2.363  0.1958 -0.1746 -0.3176
    1DIPC   GL221472   0.979  21.799   2.555 -0.3808 -0.0450 -0.1130
    1DIPC   C1A21473   0.547  21.534   2.830 -0.0392  0.2250  0.1523
    1DIPC   D2A21474   0.554  21.629   3.300 -0.3145 -0.2881  0.1386
    1DIPC   D3A21475   0.883  21.844   3.407 -0.2456 -0.1257  0.1523
    1DIPC   C4A21476   1.075  21.768   3.909 -0.3491 -0.0464  0.0558
    1DIPC   C1B21477   0.730  21.966   2.885  0.1459 -0.1058  0.3295
    1DIPC   D2B21478   0.349  22.133   3.219 -0.2196  0.1601  0.3408
    1DIPC   D3B21479   0.396  21.943   3.642 -0.0552  0.0779 -0.0415
    1DIPC   C4B21480   0.207  21.461   3.727 -0.0794  0.0975  0.2943
    1DIPC   NC321481  26.338   6.944   2.254 -0.1290 -0.2673 -0.0457
    1DIPC   PO421482  25.998   7.158   2.462 -0.0268  0.2026 -0.0688
    1DIPC   GL121483  25.999   6.933   2.903  0.4060  0.0305  0.1682
    1DIPC   GL221484  26.152   7.263   3.015 -0.0425 -0.1747 -0.0118
    1DIPC   C1A21485  26.131   6.846   3.351 -0.0197  0.1817  0.0375
    1DIPC   D2A21486  26.146   6.971   3.761 -0.0707  0.0099  0.0658
    1DIPC   D3A21487  26.666   6.966   3.725 -0.0220 -0.1126 -0.0510
    1DIPC   C4A21488  26.700   7.298   3.963 -0.1640  0.0157 -0.1927
    1DIPC   C1B21489  26.218   7.459   3.487  0.0379 -0.1242  0.1253
    1DIPC   D2B21490  26.104   7.508   3.876 -0.1074 -0.1162  0.0705
    1DIPC   D3B21491  25.628   7.590   3.976 -0.0475  0.0040 -0.5980
    1DIPC   C4B21492  25.475   7.362   4.375 -0.0042 -0.0548 -0.0861
    1DIPC   NC321493   4.803   6.266   3.406 -0.0859  0.1509 -0.2092
    1DIPC   PO421494   4.598   6.556   3.102 -0.2594 -0.3825  0.2811
    1DIPC   GL121495   4.305   6.581   3.488 -0.1701  0.3337  0.1663
    1DIPC   GL221496   4.410   6.360   3.708  0.1960 -0.3452 -0.1933
    1DIPC   C1A21497   4.304   6.808   3.799 -0.0988 -0.4867 -0.2616
    1DIPC   D2A21498   4.381   7.240   4.120  0.1473  0.0809  0.3291
    1DIPC   D3A21499   4.446   7.211   4.553 -0.3223  0.0493 -0.0349
    1DIPC   C4A21500   4.808   7.262   4.754 -0.0568 -0.1781  0.1086
    1DIPC   C1B21501   4.682   6.458   4.069  0.2291  0.2302 -0.1411
    1DIPC   D2B21502   4.849   6.313   4.388 -0.0053  0.3628 -0.4661
    1DIPC   D3B21503   5.199   6.249   4.714  0.1459 -0.0539 -0.0499
    1DIPC   C4B21504   5.523   5.885   4.744 -0.3636  0.1363 -0.1989
    1DIPC   NC321505  11.832  27.700   3.272 -0.2473 -0.1390  0.0590
    1DIPC   PO421506  11.572  27.870   3.379  0.0106 -0.1893 -0.1387
    1DIPC   GL121507  11.522  27.602   3.723  0.0923 -0.1888 -0.1993
    1DIPC   GL221508  11.660  27.666   3.944  0.3360  0.2635 -0.1246
    1DIPC   C1A21509  11.257  27.386   3.967 -0.4767  0.4608  0.2634
    1DIPC   D2A21510  11.040  27.021   4.280  0.4771  0.2054  0.0357
    1DIPC   D3A21511  11.304  26.959   4.571 -0.2078  0.1627  0.1970
    1DIPC   C4A21512  11.113  26.638   4.868 -0.1899  0.0762  0.1630
    1DIPC   C1B21513  11.381  27.761   4.237  0.1227  0.1078  0.1883
    1DIPC   D2B21514  11.133  27.526   4.446  0.2058 -0.0730  0.1704
    1DIPC   D3B21515  10.744  27.716   4.628  0.2821 -0.0579  0.0228
    1DIPC   C4B21516  10.719  28.018   4.914  0.0549  0.1840 -0.0036
    1DIPC   NC321517  12.301   3.351   3.504 -0.1819  0.1521  0.0926
    1DIPC   PO421518  11.935   3.181   3.749 -0.2162  0.3308  0.3207
    1DIPC   GL121519  12.020   3.106   4.142 -0.0590  0.0834  0.0685
    1DIPC   GL221520  11.939   2.912   4.178  0.3672  0.0466 -0.0952
    1DIPC   C1A21521  12.428   3.181   4.416 -0.1087 -0.3529 -0.3521
    1DIPC   D2A21522  12.646   3.032   4.724  0.1134  0.0625  0.0199
    1DIPC   D3A21523  12.507   2.701   4.987 -0.3141 -0.4352 -0.1308
    1DIPC   C4A21524  12.279   2.885   5.388 -0.0231 -0.3771 -0.0581
    1DIPC   C1B21525  12.123   2.885   4.602 -0.0847 -0.1197  0.1018
    1DIPC   D2B21526  12.063   3.004   4.972  0.1554  0.0662  0.0276
    1DIPC   D3B21527  12.250   3.281   5.078  0.0186 -0.1024  0.2429
    1DIPC   C4B21528  12.707   3.117   5.202  0.1139  0.3000 -0.0144
    1DIPC   NC321529  29.405  29.336   2.801  0.2372 -0.0918 -0.2440
    1DIPC   PO421530  29.202  29.761   3.033 -0.2248  0.0076 -0.1652
    1DIPC   GL121531  29.297  29.874   3.494  0.3803  0.1469 -0.4342
    1DIPC   GL221532  29.264  30.144   3.732 -0.0005 -0.1771  0.2794
    1DIPC   C1A21533  29.256  29.742   4.043  0.1842  0.0084  0.2864
    1DIPC   D2A21534  29.164  29.401   4.325 -0.0573  0.1635  0.1498
    1DIPC   D3A21535  28.974  29.372   3.911 -0.0480 -0.0228  0.0766
    1DIPC   C4A21536  28.713  28.956   3.861 -0.1605  0.0916 -0.2152
    1DIPC   C1B21537  29.432  30.162   4.152 -0.0896  0.1121  0.1680
    1DIPC   D2B21538  29.538  30.141   4.531  0.0052 -0.1126 -0.0369
    1DIPC   D3B21539  29.859  29.852   4.679 -0.3801 -0.0368  0.2216
    1DIPC   C4B21540  30.065  29.853   5.113  0.0652 -0.1532  0.1093
    1DIPC   NC321541  23.719  14.071   2.021 -0.2293 -0.4989  0.0433
    1DIPC   PO421542  24.069  14.149   2.121  0.0865 -0.0409  0.0141
    1DIPC   GL121543  24.300  14.115   2.464  0.0843 -0.3107  0.3053
    1DIPC   GL221544  24.358  14.428   2.491  0.2300  0.0583 -0.2674
    1DIPC   C1A21545  24.655  13.954   2.738  0.0777  0.0025 -0.2418
    1DIPC   D2A21546  24.772  13.799   3.137 -0.0311 -0.0141  0.0676
    1DIPC   D3A21547  24.721  13.651   3.546 -0.0199 -0.1345  0.0866
    1DIPC   C4A21548  24.903  13.942   3.740  0.1712 -0.0393 -0.1819
    1DIPC   C1B21549  24.190  14.323   2.918 -0.2898  0.1305 -0.1035
    1DIPC   D2B21550  24.478  14.175   3.287  0.0508 -0.0670  0.1116
    1DIPC   D3B21551  24.401  14.039   3.693 -0.0663  0.0083  0.4386
    1DIPC   C4B21552  24.298  13.648   3.817  0.0018 -0.1523  0.0161
    1DIPC   NC321553   0.036   2.225   2.993 -0.2109 -0.1600  0.1606
    1DIPC   PO421554   0.325   1.825   2.902 -0.3620  0.4415 -0.0183
    1DIPC   GL121555   0.467   1.650   3.398  0.0924 -0.4516  0.1125
    1DIPC   GL221556   0.665   1.909   3.585  0.0139 -0.0781  0.2605
    1DIPC   C1A21557   0.537   1.522   3.810  0.0728  0.0622  0.1404
    1DIPC   D2A21558   0.612   1.362   4.199  0.1106 -0.1158  0.1533
    1DIPC   D3A21559   0.445   1.786   4.388  0.4171  0.1276 -0.0150
    1DIPC   C4A21560   0.004   1.913   4.417 -0.1521 -0.3224  0.2928
    1DIPC   C1B21561   0.851   1.827   4.004 -0.4400  0.3916  0.3739
    1DIPC   D2B21562   1.053   1.566   4.363 -0.2014  0.1919 -0.0902
    1DIPC   D3B21563   0.711   1.492   4.680 -0.0909  0.1276 -0.1227
    1DIPC   C4B21564   0.660   1.815   5.032  0.1385 -0.3050 -0.0549
    1DIPC   NC321565   5.544  26.890   2.551 -0.2140 -0.0842  0.2090
    1DIPC   PO421566   5.701  27.281   2.716  0.1448 -0.0815  0.3012
    1DIPC   GL121567   5.832  26.927   3.107  0.2007 -0.1010 -0.0549
    1DIPC   GL221568   6.129  26.960   3.335  0.3423  0.1163  0.4622
    1DIPC   C1A21569   5.588  26.682   3.383  0.1160  0.1258  0.1177
    1DIPC   D2A21570   5.538  26.347   3.672 -0.0882 -0.1003  0.1452
    1DIPC   D3A21571   5.585  25.990   3.781  0.1090  0.0918  0.0934
    1DIPC   C4A21572   5.776  25.689   3.497 -0.1796  0.3290 -0.1994
    1DIPC   C1B21573   5.984  26.820   3.707 -0.1172  0.1564 -0.0720
    1DIPC   D2B21574   5.837  26.581   3.945 -0.2656 -0.0496 -0.1584
    1DIPC   D3B21575   5.829  26.218   4.158  0.4493  0.2660 -0.0586
    1DIPC   C4B21576   6.037  25.837   4.050 -0.1170 -0.0138 -0.2767
    1DIPC   NC321577  26.896  26.438   2.835  0.2965  0.2898  0.0146
    1DIPC   PO421578  26.858  26.424   3.107  0.0266 -0.6394  0.1937
    1DIPC   GL121579  26.890  26.590   3.486  0.0714  0.3708  0.0236
    1DIPC   GL221580  27.016  26.909   3.659 -0.0584 -0.0321  0.2098
    1DIPC   C1A21581  26.611  26.648   3.866  0.0734  0.1081 -0.0323
    1DIPC   D2A21582  26.227  26.452   4.046  0.0795 -0.0580  0.3353
    1DIPC   D3A21583  26.339  26.454   4.455  0.0921  0.0097 -0.2675
    1DIPC   C4A21584  26.029  26.662   4.731 -0.1235 -0.2730 -0.3772
    1DIPC   C1B21585  26.713  27.293   3.756 -0.4281  0.0007 -0.1985
    1DIPC   D2B21586  26.605  27.609   3.902 -0.2450  0.0754 -0.1154
    1DIPC   D3B21587  26.618  27.434   4.350  0.0186 -0.0532 -0.0302
    1DIPC   C4B21588  26.923  27.445   4.626  0.0201  0.4165 -0.0347
    1DIPC   NC321589  29.693  17.118   1.619 -0.1737 -0.2224 -0.0604
    1DIPC   PO421590  29.741  17.015   1.952 -0.0485  0.1263  0.0117
    1DIPC   GL121591  30.057  17.094   2.172  0.1338 -0.0044  0.2220
    1DIPC   GL221592  30.441  17.014   2.160 -0.3247  0.0026  0.2545
    1DIPC   C1A21593  30.245  16.976   2.587 -0.3792 -0.0548  0.0728
    1DIPC   D2A21594  30.460  16.968   2.978 -0.2411  0.3335 -0.1240
    1DIPC   D3A21595  30.627  17.197   3.230  0.1478  0.2929 -0.1032
    1DIPC   C4A21596  30.996  17.344   3.199  0.1206 -0.1009 -0.2662
    1DIPC   C1B21597  30.782  16.929   2.524  0.1749  0.1407  0.0370
    1DIPC   D2B21598  31.038  17.179   2.755 -0.0831  0.2082 -0.0707
    1DIPC   D3B21599  30.924  16.839   3.016 -0.0356 -0.1833 -0.2678
    1DIPC   C4B21600  30.669  16.577   3.236  0.0340  0.0857  0.1813
    1DIPC   NC321601  19.881  26.124   3.141  0.0550 -0.2341  0.1682
    1DIPC   PO421602  20.124  26.549   3.221  0.2567 -0.0149  0.0551
    1DIPC   GL121603  20.225  26.310   3.547  0.0041  0.0660  0.1986
    1DIPC   GL221604  20.553  26.369   3.877 -0.1252 -0.0912 -0.2381
    1DIPC   C1A21605  20.126  26.125   3.954  0.3161  0.2145  0.2720
    1DIPC   D2A21606  20.091  26.087   4.432  0.0662 -0.0968  0.2376
    1DIPC   D3A21607  20.196  26.555   4.238  0.2824 -0.2637 -0.0740
    1DIPC   C4A21608  20.215  26.982   4.409  0.2984  0.0186 -0.0766
    1DIPC   C1B21609  20.620  26.204   4.339  0.1237 -0.0708  0.3170
    1DIPC   D2B21610  20.687  25.920   4.676  0.0648 -0.2437 -0.5324
    1DIPC   D3B21611  20.304  25.816   4.761  0.1006 -0.0157  0.2404
    1DIPC   C4B21612  19.932  26.129   4.907  0.0715  0.0789  0.0683
    1DIPC   NC321613   0.145   5.951   2.697  0.2107  0.0530 -0.0012
    1DIPC   PO421614   0.216   6.335   2.435 -0.0138 -0.1607  0.2477
    1DIPC   GL121615   0.171   6.437   2.912  0.0556 -0.2419  0.1533
    1DIPC   GL221616   0.477   6.575   3.060  0.0838 -0.0705 -0.3148
    1DIPC   C1A21617   0.069   6.223   3.314 -0.4648 -0.2771  0.0626
    1DIPC   D2A21618   0.128   6.178   3.762  0.1780 -0.2955 -0.0930
    1DIPC   D3A21619   0.018   6.345   4.174 -0.1010 -0.1457 -0.1152
    1DIPC   C4A21620   0.010   6.133   4.636 -0.1443  0.0435  0.2730
    1DIPC   C1B21621   0.285   6.675   3.413  0.0487  0.2423  0.0804
    1DIPC   D2B21622   0.182   6.711   3.838  0.5073 -0.0474  0.1753
    1DIPC   D3B21623  -0.313   6.756   4.009  0.0306 -0.0971 -0.2553
    1DIPC   C4B21624  -0.408   7.096   4.308 -0.0664  0.0488 -0.2086
    1DIPC   NC321625  28.351  18.450   1.976  0.4475 -0.2800 -0.0634
    1DIPC   PO421626  28.528  18.038   2.005 -0.2120 -0.1620 -0.2217
    1DIPC   GL121627  28.329  18.059   2.408  0.2750  0.1051  0.1292
    1DIPC   GL221628  28.047  18.199   2.295  0.2336 -0.1468 -0.0861
    1DIPC   C1A21629  28.240  18.128   2.823  0.1395  0.1747 -0.1139
    1DIPC   D2A21630  28.412  18.054   3.213 -0.4145  0.2095 -0.1372
    1DIPC   D3A21631  28.580  17.909   3.610  0.0640 -0.3332  0.3674
    1DIPC   C4A21632  28.845  18.027   3.897  0.4703  0.1827 -0.1264
    1DIPC   C1B21633  27.878  17.969   2.588  0.0054 -0.0059  0.0388
    1DIPC   D2B21634  27.633  17.745   2.906 -0.4190  0.1044 -0.5955
    1DIPC   D3B21635  28.066  17.691   3.092 -0.1673 -0.1089 -0.0704
    1DIPC   C4B21636  27.997  17.861   3.579  0.0185 -0.3045  0.3421
    1DIPC   NC321637   7.411   8.779   3.352  0.1632  0.0923 -0.2157
    1DIPC   PO421638   7.504   8.814   3.732 -0.2737 -0.1192  0.0319
    1DIPC   GL121639   7.620   8.712   4.082  0.0385  0.2382  0.1876
    1DIPC   GL221640   7.566   8.430   4.223  0.1759 -0.3719 -0.1050
    1DIPC   C1A21641   7.612   8.761   4.566 -0.4963  0.0423  0.0005
    1DIPC   D2A21642   7.398   8.718   4.841  0.2411  0.0726  0.1747
    1DIPC   D3A21643   7.787   8.669   5.168  0.2162 -0.2260 -0.0946
    1DIPC   C4A21644   7.830   9.028   5.489 -0.1522 -0.1064 -0.0610
    1DIPC   C1B21645   7.459   8.205   4.550  0.0711 -0.1565  0.1596
    1DIPC   D2B21646   7.683   8.125   4.967  0.0762 -0.0556 -0.4603
    1DIPC   D3B21647   7.358   8.260   5.102  0.1295  0.0931  0.1326
    1DIPC   C4B21648   7.106   8.003   5.308  0.1841  0.1327  0.1200
    1DIPC   NC321649  14.886   5.254   3.601  0.1416 -0.0766  0.0708
    1DIPC   PO421650  14.811   5.691   3.507 -0.1731  0.1311  0.2872
    1DIPC   GL121651  14.743   5.682   3.931  0.1595  0.0093  0.1438
    1DIPC   GL221652  15.116   5.820   4.089  0.1726  0.1383 -0.0026
    1DIPC   C1A21653  14.531   5.860   4.355 -0.3811  0.3881 -0.0063
    1DIPC   D2A21654  14.153   5.805   4.636  0.2417 -0.2833 -0.1621
    1DIPC   D3A21655  14.363   6.093   5.019 -0.0651  0.1993  0.1155
    1DIPC   C4A21656  14.907   6.025   5.164  0.3607 -0.1142  0.0953
    1DIPC   C1B21657  14.953   6.058   4.303  0.2653  0.0079 -0.0194
    1DIPC   D2B21658  14.834   6.126   4.724  0.2685 -0.1711  0.0371
    1DIPC   D3B21659  14.592   5.667   4.785 -0.0670 -0.2623 -0.2373
    1DIPC   C4B21660  14.484   5.513   5.158 -0.1332 -0.0239 -0.1585
    1DIPC   NC321661   0.228   2.859   2.370  0.1994  0.0390  0.0585
    1DIPC   PO421662   0.024   3.016   2.748 -0.3742 -0.0662 -0.0131
    1DIPC   GL121663  -0.150   2.768   3.160 -0.0540 -0.1359 -0.1285
    1DIPC   GL221664   0.146   2.615   3.272  0.2940  0.1945 -0.1018
    1DIPC   C1A21665  -0.221   2.947   3.579  0.0565  0.0140 -0.5212
    1DIPC   D2A21666   0.033   3.028   3.974 -0.1983 -0.2212  0.2771
    1DIPC   D3A21667  -0.291   2.836   4.053 -0.1496  0.3837  0.1443
    1DIPC   C4A21668  -0.511   2.885   4.505 -0.1972 -0.0944  0.0127
    1DIPC   C1B21669   0.294   2.866   3.569 -0.0283  0.0563  0.1493
    1DIPC   D2B21670   0.640   2.890   3.915 -0.1729 -0.1394 -0.3687
    1DIPC   D3B21671   0.410   2.925   4.319 -0.3691  0.0017  0.3374
    1DIPC   C4B21672   0.072   2.684   4.406  0.1221  0.1715 -0.1979
    1DIPC   NC321673  29.203  15.876   1.479  0.2293  0.1577  0.0246
    1DIPC   PO421674  28.748  15.754   1.652  0.1490  0.1210  0.1600
    1DIPC   GL121675  28.751  15.512   2.103 -0.4063 -0.1929 -0.0611
    1DIPC   GL221676  28.505  15.580   2.305  0.2844 -0.2556  0.0351
    1DIPC   C1A21677  28.996  15.465   2.383 -0.0038 -0.0212  0.2121
    1DIPC   D2A21678  29.241  15.570   2.699  0.0208  0.2871 -0.0182
    1DIPC   D3A21679  29.460  15.743   2.998  0.1506 -0.0628 -0.0942
    1DIPC   C4A21680  29.739  16.067   3.058 -0.1103 -0.0259  0.0695
    1DIPC   C1B21681  28.419  15.202   2.564 -0.1268 -0.2112  0.1406
    1DIPC   D2B21682  28.400  15.131   2.990  0.3375  0.4750  0.2673
    1DIPC   D3B21683  28.618  15.152   3.351  0.3023 -0.4171  0.0880
    1DIPC   C4B21684  28.996  15.078   3.434 -0.1959  0.1480  0.0924
    1DIPC   NC321685  15.264   5.259   3.213 -0.2490 -0.1863  0.0120
    1DIPC   PO421686  15.504   5.085   3.535 -0.1278 -0.1072 -0.0980
    1DIPC   GL121687  15.515   5.140   3.896 -0.2086 -0.0639 -0.2210
    1DIPC   GL221688  15.235   5.279   4.071  0.1558  0.1106  0.2387
    1DIPC   C1A21689  15.590   5.067   4.331  0.0651  0.1002  0.0545
    1DIPC   D2A21690  15.301   5.156   4.661 -0.2011  0.1738 -0.1234
    1DIPC   D3A21691  15.302   5.036   5.096 -0.2302 -0.1745  0.0612
    1DIPC   C4A21692  14.933   4.940   5.304  0.1798 -0.5310  0.2318
    1DIPC   C1B21693  14.841   5.375   4.449 -0.4496 -0.0797 -0.2696
    1DIPC   D2B21694  14.415   5.236   4.513 -0.0330  0.2728 -0.4978
    1DIPC   D3B21695  14.168   5.053   4.798  0.0664  0.3050 -0.1097
    1DIPC   C4B21696  14.428   5.037   5.218  0.2616  0.0729  0.0185
    1DIPC   NC321697  20.813   9.181   2.349  0.2617  0.1559 -0.0739
    1DIPC   PO421698  20.673   8.851   2.675 -0.0769  0.5680 -0.0479
    1DIPC   GL121699  20.948   9.153   2.825  0.2147 -0.0116 -0.0766
    1DIPC   GL221700  21.240   8.975   3.097 -0.3821 -0.0468  0.0476
    1DIPC   C1A21701  20.839   9.435   3.160 -0.1102 -0.3782 -0.0462
    1DIPC   D2A21702  20.805   9.491   3.631  0.0352 -0.2667 -0.3584
    1DIPC   D3A21703  20.594   9.868   3.400  0.0915  0.2015 -0.0939
    1DIPC   C4A21704  20.317  10.139   3.606  0.1406  0.0230  0.1230
    1DIPC   C1B21705  21.259   9.258   3.386 -0.3535  0.2662  0.1860
    1DIPC   D2B21706  21.288   9.703   3.547 -0.2672  0.0196  0.2998
    1DIPC   D3B21707  21.455   9.440   3.825  0.1888 -0.1421 -0.1199
    1DIPC   C4B21708  21.355   9.675   4.206  0.3322 -0.2929 -0.0760
    1DIPC   NC321709   7.104  16.829   2.798 -0.0097 -0.1904  0.2576
    1DIPC   PO421710   7.620  16.724   2.758 -0.3100  0.2108  0.0446
    1DIPC   GL121711   7.582  16.870   3.178 -0.3909 -0.0944 -0.1280
    1DIPC   GL221712   7.872  16.941   3.386 -0.1433 -0.1604  0.0697
    1DIPC   C1A21713   7.410  16.925   3.586  0.0375 -0.0614 -0.0045
    1DIPC   D2A21714   7.221  17.225   3.907 -0.1860 -0.0154  0.6849
    1DIPC   D3A21715   7.490  17.245   4.325 -0.0666 -0.1630  0.3586
    1DIPC   C4A21716   7.879  17.550   4.132 -0.2394 -0.1892 -0.2551
    1DIPC   C1B21717   7.839  16.610   3.725  0.3526 -0.2489  0.0755
    1DIPC   D2B21718   7.828  16.404   4.068  0.0794  0.2346 -0.0061
    1DIPC   D3B21719   7.730  16.661   4.384  0.1612  0.2349  0.0042
    1DIPC   C4B21720   7.357  16.672   4.666 -0.1190  0.1779 -0.4680
    1DIPC   NC321721  14.376   2.941   3.995 -0.0774  0.3049 -0.3152
    1DIPC   PO421722  14.224   3.271   3.789 -0.0041 -0.0005 -0.1337
    1DIPC   GL121723  14.236   3.428   4.232 -0.3164  0.0337 -0.0204
    1DIPC   GL221724  14.383   3.223   4.467 -0.3098  0.0161 -0.1707
    1DIPC   C1A21725  14.577   3.634   4.525  0.2211 -0.1429  0.1180
    1DIPC   D2A21726  14.553   3.939   4.928  0.2624  0.4094 -0.0102
    1DIPC   D3A21727  14.815   3.916   5.180 -0.0996 -0.0362 -0.0266
    1DIPC   C4A21728  15.086   3.629   5.446  0.1924  0.0827 -0.2391
    1DIPC   C1B21729  14.361   3.088   4.925 -0.0730 -0.4323 -0.1918
    1DIPC   D2B21730  14.418   2.806   5.173  0.1603  0.3788 -0.1235
    1DIPC   D3B21731  14.655   2.586   5.375 -0.1146  0.0940  0.0237
    1DIPC   C4B21732  14.964   2.644   5.681 -0.3231  0.1893  0.1669
    1DIPC   NC321733   9.412  20.939   2.664 -0.2589  0.1799  0.1261
    1DIPC   PO421734   9.571  20.628   2.426  0.1965 -0.0815  0.1700
    1DIPC   GL121735   9.458  20.340   2.727  0.0221 -0.3309 -0.0196
    1DIPC   GL221736   9.344  20.497   2.938  0.1812 -0.0449 -0.1911
    1DIPC   C1A21737   9.688  20.062   2.927 -0.4692 -0.0341  0.1229
    1DIPC   D2A21738   9.709  19.663   2.988  0.2761 -0.2058  0.0162
    1DIPC   D3A21739   9.882  19.737   3.347  0.0616 -0.1590  0.0845
    1DIPC   C4A21740  10.036  19.547   3.579  0.1462 -0.0133  0.1932
    1DIPC   C1B21741   9.494  20.608   3.319 -0.3336  0.2725  0.1874
    1DIPC   D2B21742   9.911  20.686   3.468  0.0284 -0.4520  0.1705
    1DIPC   D3B21743   9.847  20.584   3.901 -0.1048  0.3621  0.2662
    1DIPC   C4B21744   9.754  20.879   4.130 -0.1851  0.3568 -0.2801
    1DIPC   NC321745   7.218   6.080   3.426 -0.2328  0.0343 -0.2010
    1DIPC   PO421746   7.363   6.467   3.677  0.1326  0.0501  0.0617
    1DIPC   GL121747   7.214   6.555   4.101 -0.0745 -0.0231  0.0201
    1DIPC   GL221748   7.123   6.185   4.088 -0.1386 -0.1989 -0.0917
    1DIPC   C1A21749   7.074   6.463   4.527 -0.1384 -0.0459  0.1717
    1DIPC   D2A21750   7.056   6.136   4.905 -0.0402 -0.3030 -0.2300
    1DIPC   D3A21751   6.602   6.200   5.155  0.2518 -0.4214 -0.1509
    1DIPC   C4A21752   6.342   5.906   5.264  0.0218  0.1158  0.0084
    1DIPC   C1B21753   6.958   6.018   4.419 -0.2973  0.3492  0.3008
    1DIPC   D2B21754   6.808   5.683   4.769  0.0279  0.2710  0.0122
    1DIPC   D3B21755   6.984   5.426   5.143 -0.0528 -0.2420  0.0981
    1DIPC   C4B21756   7.423   5.317   5.262  0.1780 -0.1802 -0.1527
    1DIPC   NC321757  28.665  12.510   1.391  0.2846 -0.2315 -0.0451
    1DIPC   PO421758  28.949  12.353   1.741 -0.0137 -0.0823 -0.1687
    1DIPC   GL121759  28.490  12.458   1.987 -0.1221  0.2521  0.4035
    1DIPC   GL221760  28.293  12.819   2.046  0.1001  0.0257  0.2303
    1DIPC   C1A21761  28.328  12.046   2.260  0.1810 -0.3010  0.2354
    1DIPC   D2A21762  28.296  11.786   2.630  0.0514 -0.1076  0.2708
    1DIPC   D3A21763  28.428  11.912   3.070 -0.0130  0.0127  0.0439
    1DIPC   C4A21764  28.216  11.827   3.408  0.0958 -0.0168 -0.0213
    1DIPC   C1B21765  28.555  12.789   2.410  0.1394 -0.0049  0.0748
    1DIPC   D2B21766  28.883  12.804   2.728  0.0864 -0.0898 -0.0455
    1DIPC   D3B21767  29.009  12.414   2.785 -0.1136 -0.0356 -0.0039
    1DIPC   C4B21768  28.555  12.238   2.722 -0.1141  0.0856  0.1726
    1DIPC   NC321769  23.676  25.509   2.888  0.0618 -0.3570  0.1195
    1DIPC   PO421770  24.142  25.769   2.934  0.1105  0.0075  0.1612
    1DIPC   GL121771  24.154  25.487   3.343  0.2906 -0.2107  0.1354
    1DIPC   GL221772  24.310  25.624   3.647  0.1552 -0.0301  0.0603
    1DIPC   C1A21773  23.974  25.267   3.838 -0.1382  0.1020 -0.1563
    1DIPC   D2A21774  23.995  25.429   4.218  0.0798  0.0092 -0.2949
    1DIPC   D3A21775  24.059  25.507   4.693 -0.0239 -0.0803 -0.2005
    1DIPC   C4A21776  24.527  25.622   4.827 -0.1366  0.3399  0.4150
    1DIPC   C1B21777  24.277  25.899   3.973 -0.2997 -0.0798  0.2436
    1DIPC   D2B21778  24.467  25.912   4.372 -0.1922  0.1518 -0.0299
    1DIPC   D3B21779  24.670  26.285   4.576 -0.4077 -0.0568  0.0089
    1DIPC   C4B21780  24.706  26.047   4.889 -0.2680  0.0203 -0.1021
    1DIPC   NC321781   1.873  12.448   1.939  0.0885  0.4053 -0.1015
    1DIPC   PO421782   2.174  12.279   2.196  0.0382 -0.4087 -0.1914
    1DIPC   GL121783   2.037  12.173   2.647  0.2048  0.0524 -0.0353
    1DIPC   GL221784   2.008  12.401   2.932  0.0267 -0.0354 -0.2149
    1DIPC   C1A21785   2.319  11.966   3.038 -0.0452 -0.4440 -0.1380
    1DIPC   D2A21786   2.302  11.681   3.449  0.3399 -0.0054  0.0937
    1DIPC   D3A21787   2.295  11.323   3.631 -0.1995  0.0270  0.1039
    1DIPC   C4A21788   2.381  11.085   3.259 -0.0895 -0.0699 -0.0780
    1DIPC   C1B21789   2.450  12.542   3.102 -0.1877 -0.0614 -0.2784
    1DIPC   D2B21790   2.565  12.792   3.498  0.2723  0.3472 -0.3143
    1DIPC   D3B21791   2.354  12.591   3.925  0.0389  0.4850 -0.1377
    1DIPC   C4B21792   2.276  12.574   4.393  0.0509  0.3927  0.0587
    1DIPC   NC321793  27.302   9.341   2.224  0.1323  0.2168 -0.0696
    1DIPC   PO421794  27.353   8.894   2.205  0.1809  0.0657 -0.1479
    1DIPC   GL121795  27.219   9.059   2.664  0.0248  0.4521 -0.1234
    1DIPC   GL221796  27.596   9.042   2.621 -0.2029  0.0510 -0.3625
    1DIPC   C1A21797  27.172   9.007   3.162  0.1384 -0.0736 -0.1135
    1DIPC   D2A21798  27.002   9.229   3.651 -0.1126 -0.1084 -0.0415
    1DIPC   D3A21799  27.051   8.812   3.670  0.2048 -0.2689 -0.0660
    1DIPC   C4A21800  27.076   8.573   4.014  0.2399 -0.1851 -0.0684
    1DIPC   C1B21801  27.692   9.125   3.031 -0.0244 -0.1856  0.3549
    1DIPC   D2B21802  27.826   9.410   3.318  0.0613  0.0000 -0.1864
    1DIPC   D3B21803  27.480   9.228   3.512  0.0176  0.2226  0.0532
    1DIPC   C4B21804  27.476   8.991   3.940 -0.1921 -0.2908  0.0624
    1DIPC   NC321805   1.189   9.404   2.351 -0.1325 -0.4071 -0.1567
    1DIPC   PO421806   1.543   9.205   2.405  0.0863  0.1390 -0.0376
    1DIPC   GL121807   1.409   9.404   2.855  0.3296 -0.1695 -0.1488
    1DIPC   GL221808   1.241   9.341   3.163  0.0045  0.1409  0.1162
    1DIPC   C1A21809   1.576   9.668   3.161  0.3879 -0.2646 -0.2123
    1DIPC   D2A21810   1.879   9.856   3.469 -0.0053  0.0946  0.0468
    1DIPC   D3A21811   1.452   9.841   3.701 -0.1320  0.1905 -0.3161
    1DIPC   C4A21812   1.039   9.597   3.621 -0.1275 -0.1597  0.1394
    1DIPC   C1B21813   0.836   9.525   3.165 -0.0381  0.0283 -0.1950
    1DIPC   D2B21814   0.658   9.948   3.488  0.0926 -0.1411 -0.2471
    1DIPC   D3B21815   0.554   9.794   3.758  0.0310  0.0044  0.1048
    1DIPC   C4B21816   0.733   9.570   4.058  0.3097 -0.2042  0.1899
    1DIPC   NC321817  12.257  29.662   3.114  0.0241  0.0808 -0.2141
    1DIPC   PO421818  11.775  29.637   3.284 -0.3373  0.0403  0.1648
    1DIPC   GL121819  11.830  29.580   3.708 -0.2506  0.0226  0.0465
    1DIPC   GL221820  11.735  29.843   3.903  0.0401 -0.0839  0.1441
    1DIPC   C1A21821  11.563  29.342   4.024 -0.1378 -0.3817  0.0977
    1DIPC   D2A21822  11.403  29.124   4.449  0.0172 -0.3432  0.1396
    1DIPC   D3A21823  11.292  28.952   4.851 -0.2209  0.2148 -0.2062
    1DIPC   C4A21824  11.492  28.989   5.187 -0.1324  0.1340 -0.2370
    1DIPC   C1B21825  11.954  29.636   4.283  0.0466 -0.1737 -0.2636
    1DIPC   D2B21826  12.081  29.484   4.580  0.2303 -0.1140  0.0907
    1DIPC   D3B21827  11.727  29.346   4.881  0.0236  0.2220  0.0421
    1DIPC   C4B21828  11.822  29.327   5.337 -0.1646  0.1206 -0.2444
    1DIPC   NC321829   2.747  10.506   2.521  0.3999  0.0869 -0.2800
    1DIPC   PO421830   2.990  10.121   2.660  0.0007 -0.3717  0.2879
    1DIPC   GL121831   3.046  10.034   3.174 -0.3107  0.1419 -0.1657
    1DIPC   GL221832   3.288   9.797   3.287 -0.2174 -0.2888  0.2398
    1DIPC   C1A21833   2.714   9.839   3.416  0.0920 -0.2182 -0.1651
    1DIPC   D2A21834   2.312   9.600   3.547  0.0944 -0.2509  0.1031
    1DIPC   D3A21835   2.434   9.733   3.933  0.0953  0.1631 -0.0446
    1DIPC   C4A21836   2.321   9.898   4.279  0.2331  0.1663  0.0858
    1DIPC   C1B21837   3.338  10.183   3.536 -0.1061  0.0069  0.0438
    1DIPC   D2B21838   3.324  10.562   3.509  0.3213  0.1023  0.2485
    1DIPC   D3B21839   3.210  10.635   4.008 -0.0261 -0.2402  0.1123
    1DIPC   C4B21840   3.467  10.416   4.425  0.1141  0.0997  0.0375
    1DIPC   NC321841   7.679  24.507   2.237  0.0748 -0.0160 -0.0711
    1DIPC   PO421842   7.455  24.064   2.396  0.3933 -0.1240  0.0248
    1DIPC   GL121843   7.258  24.060   2.834  0.1156  0.4085  0.2247
    1DIPC   GL221844   7.607  24.034   3.067  0.5141  0.3244  0.1385
    1DIPC   C1A21845   7.020  24.059   3.221  0.2201  0.1069 -0.0018
    1DIPC   D2A21846   6.979  24.384   3.477  0.0734 -0.1345 -0.2620
    1DIPC   D3A21847   6.731  24.228   3.833 -0.2046 -0.1882 -0.0112
    1DIPC   C4A21848   6.374  24.432   3.998 -0.1668  0.0937 -0.0143
    1DIPC   C1B21849   7.464  24.072   3.482  0.2468  0.1484 -0.0943
    1DIPC   D2B21850   7.260  24.239   3.888 -0.0128 -0.0465  0.2166
    1DIPC   D3B21851   7.696  24.247   4.145  0.1721 -0.2229 -0.1816
    1DIPC   C4B21852   7.993  24.541   4.434 -0.3880  0.0422  0.0339
    1DIPC   NC321853  12.326   1.382   3.775 -0.0972  0.0464  0.2375
    1DIPC   PO421854  11.901   1.223   3.805  0.1996 -0.0533  0.0403
    1DIPC   GL121855  12.025   0.925   4.034  0.1156  0.3219 -0.0514
    1DIPC   GL221856  11.689   0.706   4.141  0.2245 -0.1411  0.0994
    1DIPC   C1A21857  12.334   0.636   4.275  0.3479 -0.2572 -0.2052
    1DIPC   D2A21858  12.473   0.461   4.640 -0.0823  0.1410 -0.2087
    1DIPC   D3A21859  12.830   0.197   4.661  0.2340 -0.1675 -0.0029
    1DIPC   C4A21860  12.895  -0.145   4.342  0.0915  0.0106  0.1069
    1DIPC   C1B21861  11.582   0.696   4.564  0.2903 -0.2024 -0.1956
    1DIPC   D2B21862  11.378   0.632   4.970 -0.1423  0.0229  0.1892
    1DIPC   D3B21863  11.700   0.487   5.283 -0.5658 -0.1309  0.1742
    1DIPC   C4B21864  11.796   0.038   5.243 -0.0539 -0.2172 -0.3165
    1DIPC   NC321865  19.317  21.647   2.720  0.2279  0.2238 -0.0566
    1DIPC   PO421866  19.688  21.427   2.519 -0.2302  0.0607 -0.0765
    1DIPC   GL121867  19.825  21.348   2.856  0.3269 -0.2808  0.0938
    1DIPC   GL221868  20.125  21.187   2.903 -0.1265  0.1549  0.1699
    1DIPC   C1A21869  19.725  21.477   3.273  0.1701  0.0244 -0.0273
    1DIPC   D2A21870  19.863  21.583   3.623  0.1102 -0.2671 -0.1436
    1DIPC   D3A21871  19.835  21.480   4.006  0.1638 -0.0270  0.0311
    1DIPC   C4A21872  19.717  21.769   4.309 -0.0860  0.0077 -0.1184
    1DIPC   C1B21873  20.147  21.105   3.418  0.1617  0.1735 -0.0610
    1DIPC   D2B21874  20.239  21.341   3.755 -0.3205 -0.1442  0.0175
    1DIPC   D3B21875  20.265  21.203   4.102 -0.0725  0.1694  0.0693
    1DIPC   C4B21876  20.131  20.880   4.294 -0.0149 -0.0201  0.0458
    1DIPC   NC321877  13.679  25.483   3.293 -0.0411  0.1575 -0.1604
    1DIPC   PO421878  14.036  25.765   3.078  0.1230  0.1394 -0.0441
    1DIPC   GL121879  14.382  25.572   3.326  0.0345 -0.1943 -0.1057
    1DIPC   GL221880  14.170  25.484   3.588  0.5924 -0.1422  0.0794
    1DIPC   C1A21881  14.643  25.623   3.684  0.0823 -0.1656 -0.0227
    1DIPC   D2A21882  14.864  25.374   3.916 -0.0255 -0.2454 -0.4245
    1DIPC   D3A21883  14.688  24.959   4.015 -0.1521  0.0593  0.0092
    1DIPC   C4A21884  14.304  24.902   4.150 -0.2995 -0.3031  0.0654
    1DIPC   C1B21885  14.343  25.399   3.967  0.1659 -0.3092 -0.1658
    1DIPC   D2B21886  14.666  25.257   4.385 -0.1278 -0.0928  0.1649
    1DIPC   D3B21887  14.617  25.630   4.705 -0.3377  0.0796  0.0289
    1DIPC   C4B21888  14.196  25.768   4.900 -0.2480 -0.1032  0.0180
    1DIPC   NC321889   4.217   9.488   2.431  0.3369  0.2008  0.2787
    1DIPC   PO421890   4.379   9.224   2.869  0.0488  0.1189 -0.0113
    1DIPC   GL121891   4.249   9.523   3.089  0.1489 -0.1571 -0.1450
    1DIPC   GL221892   4.361   9.811   3.116 -0.0227 -0.2943 -0.0011
    1DIPC   C1A21893   4.222   9.526   3.489 -0.0225 -0.0418 -0.0145
    1DIPC   D2A21894   4.355   9.947   3.595  0.1350  0.0716  0.0649
    1DIPC   D3A21895   4.229   9.939   4.020 -0.1964  0.0722  0.1982
    1DIPC   C4A21896   4.245   9.633   4.239 -0.0313  0.0499 -0.2873
    1DIPC   C1B21897   4.714   9.705   3.341 -0.0221 -0.0600  0.1640
    1DIPC   D2B21898   5.105   9.805   3.616 -0.1871  0.1429 -0.0421
    1DIPC   D3B21899   5.148   9.646   3.988  0.1335 -0.3907  0.1837
    1DIPC   C4B21900   5.266   9.628   4.445  0.0522 -0.1310  0.1080
    1DIPC   NC321901  15.806  29.482   3.081 -0.2191 -0.0898 -0.1051
    1DIPC   PO421902  15.789  29.848   3.234  0.2814 -0.0329 -0.2071
    1DIPC   GL121903  15.707  29.686   3.679 -0.0207 -0.0618  0.4346
    1DIPC   GL221904  15.747  29.904   3.891 -0.1137 -0.0049  0.1374
    1DIPC   C1A21905  15.556  29.388   3.986 -0.3425  0.3595  0.3610
    1DIPC   D2A21906  15.113  29.213   4.155 -0.2651 -0.4708  0.1411
    1DIPC   D3A21907  15.149  29.112   4.647 -0.1600 -0.0583 -0.0719
    1DIPC   C4A21908  15.152  28.795   4.941 -0.2373 -0.0758 -0.3402
    1DIPC   C1B21909  15.726  30.175   4.359  0.3216 -0.5034  0.1529
    1DIPC   D2B21910  15.729  30.458   4.696 -0.2358 -0.1467  0.1750
    1DIPC   D3B21911  15.972  30.542   5.052 -0.0138  0.0266  0.0980
    1DIPC   C4B21912  15.703  30.734   5.286  0.0001  0.2770 -0.0352
    1DIPC   NC321913   7.522   3.150   2.898 -0.1201 -0.3207 -0.1353
    1DIPC   PO421914   7.624   3.403   3.287  0.0384  0.2915 -0.3091
    1DIPC   GL121915   7.715   3.084   3.665 -0.3146 -0.2090  0.0726
    1DIPC   GL221916   7.562   3.204   3.999 -0.0195 -0.0933 -0.0815
    1DIPC   C1A21917   7.814   2.703   3.920 -0.1021  0.0942 -0.4057
    1DIPC   D2A21918   7.541   2.373   3.911 -0.0512  0.0895 -0.3541
    1DIPC   D3A21919   7.503   2.328   4.330 -0.3249 -0.4711 -0.3573
    1DIPC   C4A21920   7.800   2.079   4.560  0.0865 -0.0699 -0.0478
    1DIPC   C1B21921   7.450   2.833   4.310  0.2310 -0.0444 -0.1055
    1DIPC   D2B21922   7.120   2.802   4.649  0.1123 -0.2293 -0.2573
    1DIPC   D3B21923   6.755   3.061   4.737 -0.3295  0.2139  0.2402
    1DIPC   C4B21924   6.771   3.504   4.698  0.0475  0.0207  0.0353
    1DIPC   NC321925  23.146  20.642   2.447  0.0811 -0.0971 -0.0558
    1DIPC   PO421926  23.525  20.625   2.218  0.0448 -0.1856 -0.1967
    1DIPC   GL121927  23.602  20.304   2.673  0.1664 -0.1089  0.1381
    1DIPC   GL221928  23.282  20.240   2.756  0.0712 -0.2105  0.0321
    1DIPC   C1A21929  23.811  20.182   3.009  0.1813 -0.0391 -0.2616
    1DIPC   D2A21930  23.775  20.183   3.456 -0.0799 -0.0469  0.2199
    1DIPC   D3A21931  24.022  20.261   3.826  0.0677 -0.0497 -0.2407
    1DIPC   C4A21932  24.273  20.080   4.008  0.2395  0.0392 -0.3706
    1DIPC   C1B21933  23.305  20.490   3.035  0.1368 -0.1361 -0.0193
    1DIPC   D2B21934  23.302  20.464   3.482  0.1874 -0.3344  0.1831
    1DIPC   D3B21935  23.297  20.253   3.852 -0.1244  0.0230 -0.3290
    1DIPC   C4B21936  23.274  20.582   4.161 -0.0131 -0.0062  0.1109
    1DIPC   NC321937   3.864  18.730   1.326  0.2708  0.3113 -0.3795
    1DIPC   PO421938   3.607  18.274   1.316  0.0481  0.1411 -0.0235
    1DIPC   GL121939   3.524  18.035   1.604 -0.1087 -0.3080 -0.2492
    1DIPC   GL221940   3.637  17.643   1.777 -0.1152 -0.4424 -0.1769
    1DIPC   C1A21941   3.618  18.129   2.047  0.0971  0.2076 -0.0604
    1DIPC   D2A21942   3.460  18.157   2.470  0.1026 -0.0201  0.1425
    1DIPC   D3A21943   3.515  18.240   2.743 -0.1539  0.2196  0.4041
    1DIPC   C4A21944   3.825  17.999   2.965  0.0672  0.1349  0.1145
    1DIPC   C1B21945   3.542  17.296   2.037 -0.2065 -0.2270  0.1738
    1DIPC   D2B21946   3.695  17.148   2.416 -0.1973  0.0958  0.0603
    1DIPC   D3B21947   4.187  17.109   2.438 -0.1295  0.1476 -0.2765
    1DIPC   C4B21948   4.412  16.915   2.291 -0.0202  0.1190 -0.0368
    1DIPC   NC321949   5.508   8.756   3.504  0.0445  0.2951  0.2361
    1DIPC   PO421950   5.269   9.069   3.241  0.1071 -0.0593 -0.0763
    1DIPC   GL121951   4.924   9.240   3.460 -0.1189  0.5392  0.3804
    1DIPC   GL221952   5.164   9.182   3.741  0.0543 -0.1006  0.1290
    1DIPC   C1A21953   4.673   9.536   3.825 -0.0081  0.0282  0.2741
    1DIPC   D2A21954   4.753   9.664   4.296  0.1294 -0.1880  0.2086
    1DIPC   D3A21955   4.547   9.907   4.581  0.1061  0.0418 -0.0098
    1DIPC   C4A21956   4.413  10.231   4.408  0.1664 -0.2101 -0.0413
    1DIPC   C1B21957   5.015   9.205   4.185  0.0567 -0.1907 -0.0477
    1DIPC   D2B21958   4.538   9.175   4.471 -0.1239  0.0744 -0.3888
    1DIPC   D3B21959   4.956   9.393   4.773 -0.0398 -0.7332  0.0263
    1DIPC   C4B21960   5.400   9.460   4.928 -0.3574  0.2335 -0.2591
    1DIPC   NC321961  23.695   9.565   2.523  0.3149  0.0361  0.0121
    1DIPC   PO421962  23.992   9.373   2.330  0.1602  0.0337  0.1304
    1DIPC   GL121963  24.138   9.552   2.751 -0.2640  0.0201  0.0043
    1DIPC   GL221964  24.340   9.321   2.945 -0.0377  0.3035 -0.3440
    1DIPC   C1A21965  24.228   9.833   3.147 -0.2126  0.1312  0.2242
    1DIPC   D2A21966  24.603  10.030   3.090 -0.1110 -0.2082  0.1990
    1DIPC   D3A21967  24.795   9.698   3.207 -0.0257  0.2423 -0.1082
    1DIPC   C4A21968  24.612   9.364   3.426 -0.0965  0.1421 -0.0428
    1DIPC   C1B21969  24.110   9.271   3.291  0.2467 -0.0154  0.0046
    1DIPC   D2B21970  24.197   9.210   3.721 -0.0574  0.2818 -0.2221
    1DIPC   D3B21971  24.456   9.394   4.043  0.1074 -0.2284 -0.0080
    1DIPC   C4B21972  24.811   9.301   4.237  0.2600  0.2433 -0.0362
    1DIPC   NC321973  27.813  22.542   2.332  0.1182  0.2347  0.1952
    1DIPC   PO421974  27.500  22.768   2.561 -0.0591  0.0605  0.0600
    1DIPC   GL121975  27.467  22.833   2.960  0.2685 -0.2712 -0.0767
    1DIPC   GL221976  27.656  22.675   3.209  0.1888  0.2294  0.1558
    1DIPC   C1A21977  27.737  23.131   3.273  0.0419 -0.1410 -0.4534
    1DIPC   D2A21978  27.717  23.256   3.701 -0.1868  0.0370 -0.1481
    1DIPC   D3A21979  27.840  23.111   4.225  0.1122  0.0200  0.1138
    1DIPC   C4A21980  28.175  23.095   4.438 -0.1088  0.0956 -0.3616
    1DIPC   C1B21981  27.466  22.642   3.602 -0.1524  0.1640 -0.0871
    1DIPC   D2B21982  27.821  22.423   3.858 -0.1265  0.2897  0.1020
    1DIPC   D3B21983  27.965  22.819   3.815 -0.0590  0.3930 -0.1670
    1DIPC   C4B21984  28.313  22.918   3.938 -0.0603 -0.0837 -0.0309
    1DIPC   NC321985  25.638   6.807   2.606  0.1273 -0.1049  0.0601
    1DIPC   PO421986  25.415   6.882   2.841  0.0728  0.1683  0.0415
    1DIPC   GL121987  25.467   6.759   3.252  0.0825 -0.2403 -0.1578
    1DIPC   GL221988  25.237   6.658   3.381  0.2691 -0.0614  0.1259
    1DIPC   C1A21989  25.726   6.776   3.617 -0.1246 -0.0720  0.0404
    1DIPC   D2A21990  25.941   6.514   3.857  0.2266  0.0557  0.2411
    1DIPC   D3A21991  26.155   6.680   4.276 -0.1691 -0.1271  0.2446
    1DIPC   C4A21992  26.102   6.404   4.707 -0.0387  0.0055  0.2494
    1DIPC   C1B21993  25.311   6.505   3.798 -0.0618 -0.1782 -0.1268
    1DIPC   D2B21994  25.276   6.580   4.186  0.0517 -0.0937  0.0284
    1DIPC   D3B21995  25.619   6.875   4.245 -0.0092 -0.1247  0.1719
    1DIPC   C4B21996  25.840   6.970   4.600 -0.0010  0.0705 -0.0668
    1DIPC   NC321997  17.213   7.668   3.091  0.0053  0.1039 -0.0027
    1DIPC   PO421998  16.911   7.569   3.218 -0.0512 -0.1170  0.0293
    1DIPC   GL121999  17.155   7.864   3.568 -0.1505  0.3617 -0.0985
    1DIPC   GL222000  16.891   8.002   3.793  0.0013 -0.0580  0.2540
    1DIPC   C1A22001  17.578   8.254   3.602  0.3054  0.2342  0.1162
    1DIPC   D2A22002  17.923   8.374   3.884  0.0142 -0.2596  0.1477
    1DIPC   D3A22003  17.883   8.470   4.351 -0.1634  0.1202  0.0905
    1DIPC   C4A22004  17.482   8.297   4.645  0.0452  0.1237  0.3356
    1DIPC   C1B22005  17.015   8.394   3.661 -0.0619  0.1342  0.0154
    1DIPC   D2B22006  17.203   8.735   3.918  0.0924  0.0484  0.1107
    1DIPC   D3B22007  17.255   8.681   4.357 -0.0204 -0.0821  0.2763
    1DIPC   C4B22008  17.166   9.069   4.516  0.1539 -0.2406  0.0063
    1DIPC   NC322009  24.420  25.372   2.815 -0.1063  0.0833  0.1778
    1DIPC   PO422010  24.125  25.151   2.991  0.3384 -0.0488 -0.1341
    1DIPC   GL122011  23.720  25.138   3.201  0.0468  0.0524 -0.0524
    1DIPC   GL222012  23.532  24.934   3.222  0.0272 -0.0898  0.4109
    1DIPC   C1A22013  23.490  25.346   3.556 -0.2773  0.0397 -0.4365
    1DIPC   D2A22014  23.086  25.225   3.726 -0.3097 -0.1821  0.0145
    1DIPC   D3A22015  22.885  25.044   3.842 -0.0300 -0.0141  0.0273
    1DIPC   C4A22016  23.015  24.598   3.990  0.1804  0.0018 -0.2007
    1DIPC   C1B22017  23.374  24.803   3.560 -0.1037  0.0478  0.3979
    1DIPC   D2B22018  23.405  24.918   3.915  0.0470 -0.0564 -0.1790
    1DIPC   D3B22019  23.528  25.171   4.253  0.4118  0.1062 -0.0021
    1DIPC   C4B22020  23.836  25.087   4.564  0.0150 -0.0029  0.0267
    1DIPC   NC322021  26.343   8.756   2.086  0.1207  0.2151  0.0204
    1DIPC   PO422022  25.976   8.814   2.358 -0.1064  0.0810  0.2432
    1DIPC   GL122023  26.054   8.729   2.780  0.2670 -0.2074 -0.1377
    1DIPC   GL222024  25.952   8.425   2.869 -0.1049  0.2439 -0.0816
    1DIPC   C1A22025  26.377   8.633   3.006  0.2422  0.2056 -0.1712
    1DIPC   D2A22026  26.778   8.360   3.006 -0.1357 -0.2131 -0.0189
    1DIPC   D3A22027  26.972   8.577   3.289  0.2234  0.2456  0.3408
    1DIPC   C4A22028  27.024   8.241   3.627 -0.0105  0.2688 -0.2167
    1DIPC   C1B22029  25.905   8.481   3.298  0.0415 -0.0483 -0.1855
    1DIPC   D2B22030  26.056   8.878   3.500  0.1326  0.2030 -0.0669
    1DIPC   D3B22031  25.962   8.935   3.964 -0.2685  0.2317 -0.1878
    1DIPC   C4B22032  25.880   9.317   4.136  0.0897 -0.3169 -0.0644
    1DIPC   NC322033   8.184  28.719   2.975  0.2287  0.1201 -0.2021
    1DIPC   PO422034   8.548  28.519   3.185 -0.0572  0.4216 -0.3895
    1DIPC   GL122035   8.286  28.443   3.495  0.0890  0.0392 -0.3462
    1DIPC   GL222036   8.409  28.198   3.670  0.2811 -0.0269  0.1510
    1DIPC   C1A22037   7.806  28.495   3.668  0.3971  0.1896  0.2629
    1DIPC   D2A22038   7.622  28.148   4.017 -0.3436  0.2297 -0.2677
    1DIPC   D3A22039   8.044  28.216   4.290 -0.1450  0.0787  0.3122
    1DIPC   C4A22040   8.345  28.092   4.570 -0.0131  0.0448 -0.0883
    1DIPC   C1B22041   8.544  28.393   4.059 -0.5352  0.0218 -0.1423
    1DIPC   D2B22042   8.291  28.741   4.142 -0.0717  0.2090  0.0852
    1DIPC   D3B22043   8.129  28.638   4.516 -0.0608  0.1663  0.2100
    1DIPC   C4B22044   8.137  28.858   4.712  0.0516  0.0256  0.3372
    1DIPC   NC322045   0.817  26.405   2.385 -0.3386 -0.0880 -0.1016
    1DIPC   PO422046   0.914  26.011   2.392  0.3658  0.2931  0.3870
    1DIPC   GL122047   0.681  26.001   2.648 -0.1531  0.0844 -0.0916
    1DIPC   GL222048   0.847  25.996   2.905  0.0057 -0.2807 -0.1505
    1DIPC   C1A22049   0.288  26.200   2.895 -0.0116  0.0855 -0.2668
    1DIPC   D2A22050   0.244  26.396   3.187 -0.1311  0.1624  0.0541
    1DIPC   D3A22051   0.062  26.612   3.595 -0.3461 -0.1482 -0.1014
    1DIPC   C4A22052  -0.377  26.729   3.631 -0.3678 -0.0175  0.1468
    1DIPC   C1B22053   0.852  25.986   3.340  0.1113  0.2230 -0.1487
    1DIPC   D2B22054   0.787  25.999   3.778 -0.0264  0.2082  0.1547
    1DIPC   D3B22055   0.335  26.050   3.639  0.2491  0.1453 -0.1891
    1DIPC   C4B22056   0.318  25.832   3.249  0.0025  0.0915  0.1706
    1DIPC   NC322057   1.374  16.232   1.343 -0.1402  0.0145 -0.1388
    1DIPC   PO422058   1.503  16.302   1.715  0.0973  0.0374 -0.0810
    1DIPC   GL122059   1.603  16.186   2.126  0.1635 -0.0725 -0.1319
    1DIPC   GL222060   1.569  15.859   2.288 -0.0366 -0.0661  0.0076
    1DIPC   C1A22061   1.321  16.218   2.454 -0.2046 -0.1406 -0.2071
    1DIPC   D2A22062   1.034  16.477   2.651 -0.0650 -0.0882  0.3356
    1DIPC   D3A22063   0.818  16.067   2.426  0.1078 -0.0440  0.2866
    1DIPC   C4A22064   1.114  15.915   2.084 -0.0544  0.0795  0.0163
    1DIPC   C1B22065   1.788  16.142   2.711 -0.0296  0.0669  0.1044
    1DIPC   D2B22066   1.691  16.088   3.144  0.0782 -0.0544  0.3185
    1DIPC   D3B22067   2.114  16.153   3.202 -0.2154 -0.0743 -0.2330
    1DIPC   C4B22068   2.405  16.134   3.625 -0.0544  0.0026  0.3996
    1DIPC   NC322069  24.976  28.158   3.156 -0.2941  0.0887 -0.1562
    1DIPC   PO422070  25.002  28.606   3.176  0.0239 -0.2136 -0.1348
    1DIPC   GL122071  25.007  28.626   3.605  0.2611  0.1572 -0.0424
    1DIPC   GL222072  24.745  28.575   3.871  0.2410  0.0556  0.4193
    1DIPC   C1A22073  25.139  28.991   3.921  0.0111 -0.1561  0.2356
    1DIPC   D2A22074  25.219  29.083   4.319  0.0329 -0.3152 -0.2073
    1DIPC   D3A22075  24.950  28.952   4.768 -0.1352 -0.0633 -0.0345
    1DIPC   C4A22076  25.089  28.937   5.191  0.0240  0.1357  0.0315
    1DIPC   C1B22077  24.855  28.672   4.266  0.1842  0.1055 -0.0788
    1DIPC   D2B22078  25.138  28.512   4.656 -0.0316 -0.3221 -0.2437
    1DIPC   D3B22079  25.582  28.812   4.719 -0.3609 -0.2114 -0.2551
    1DIPC   C4B22080  25.969  28.640   4.640  0.2661 -0.0838  0.0121
    1DIPC   NC322081   9.962  21.982   2.216  0.1489 -0.0632 -0.0999
    1DIPC   PO422082   9.793  21.657   2.436  0.1925  0.3614 -0.1509
    1DIPC   GL122083   9.625  21.555   2.901  0.0807 -0.2098 -0.1480
    1DIPC   GL222084   9.315  21.433   2.939  0.0838  0.1316  0.1449
    1DIPC   C1A22085   9.665  21.672   3.199 -0.1810 -0.1692  0.0807
    1DIPC   D2A22086   9.524  21.655   3.644 -0.0779  0.2249  0.1489
    1DIPC   D3A22087   9.819  21.958   3.659 -0.0578  0.3793 -0.2458
    1DIPC   C4A22088   9.566  22.292   3.715  0.0677 -0.3055  0.0056
    1DIPC   C1B22089   9.117  21.510   3.359  0.4199 -0.0550  0.1993
    1DIPC   D2B22090   9.125  21.545   3.871  0.3603  0.1858  0.2069
    1DIPC   D3B22091   8.744  21.385   3.728 -0.0537  0.0342  0.0988
    1DIPC   C4B22092   8.430  21.213   3.964 -0.0465  0.1616 -0.1010
    1DIPC   NC322093   5.049  19.547   1.720 -0.4608  0.0710  0.2475
    1DIPC   PO422094   5.228  19.995   1.893  0.0592 -0.2205 -0.0596
    1DIPC   GL122095   4.962  20.158   2.256  0.0855 -0.2979  0.0461
    1DIPC   GL222096   5.235  20.240   2.519  0.1657  0.2435  0.1312
    1DIPC   C1A22097   4.717  20.258   2.572  0.4563 -0.1740 -0.2118
    1DIPC   D2A22098   4.488  20.183   2.910  0.2984 -0.1731 -0.0812
    1DIPC   D3A22099   4.749  20.188   3.153 -0.2687  0.1334 -0.2771
    1DIPC   C4A22100   5.121  20.391   3.211  0.0136 -0.0133  0.0423
    1DIPC   C1B22101   5.165  20.050   2.878 -0.0015  0.1968  0.0481
    1DIPC   D2B22102   5.078  19.664   3.167  0.0998  0.1343 -0.0857
    1DIPC   D3B22103   4.672  19.772   3.492 -0.1675  0.0814  0.0613
    1DIPC   C4B22104   4.666  19.985   3.833 -0.0443 -0.0754  0.2902
    1DIPC   NC322105   2.984  12.165   2.351  0.0326  0.3766 -0.3549
    1DIPC   PO422106   2.755  12.470   2.155 -0.1489 -0.3321  0.0506
    1DIPC   GL122107   2.702  12.915   2.434  0.1475  0.1162  0.0552
    1DIPC   GL222108   2.576  13.147   2.274  0.0424 -0.0656  0.0384
    1DIPC   C1A22109   2.786  12.866   2.888 -0.0886 -0.1613 -0.0058
    1DIPC   D2A22110   2.951  12.619   3.177  0.0521  0.0514  0.0211
    1DIPC   D3A22111   3.412  12.490   3.072  0.2278 -0.1028 -0.1788
    1DIPC   C4A22112   3.831  12.417   3.342 -0.2222  0.0109  0.4311
    1DIPC   C1B22113   2.478  13.301   2.693 -0.4724 -0.4121 -0.1679
    1DIPC   D2B22114   2.483  13.244   3.139 -0.1584  0.0082  0.2044
    1DIPC   D3B22115   2.233  13.239   3.577  0.2489  0.1477  0.0179
    1DIPC   C4B22116   2.253  13.099   4.055 -0.0710 -0.1276  0.2574
    1DIPC   NC322117   1.721  10.597   2.750  0.2656  0.1113 -0.1645
    1DIPC   PO422118   2.186  10.505   2.636 -0.2630 -0.1162  0.0696
    1DIPC   GL122119   2.071  10.716   3.065  0.1513  0.0702  0.0367
    1DIPC   GL222120   1.759  10.850   3.178 -0.1868  0.0065 -0.0224
    1DIPC   C1A22121   2.255  10.600   3.425  0.0114 -0.1449  0.0790
    1DIPC   D2A22122   2.261  10.836   3.729  0.4560 -0.0950 -0.1203
    1DIPC   D3A22123   1.844  11.043   3.960 -0.3237 -0.0180  0.1255
    1DIPC   C4A22124   1.821  11.352   4.223  0.1972 -0.1108  0.0586
    1DIPC   C1B22125   1.914  11.078   3.435  0.0298 -0.0053  0.2375
    1DIPC   D2B22126   1.846  11.494   3.596  0.0372  0.1707  0.2617
    1DIPC   D3B22127   1.378  11.453   3.714  0.2230  0.0628 -0.2075
    1DIPC   C4B22128   1.105  11.805   3.649 -0.0258  0.0334 -0.1812
    1DIPC   NC322129  23.684   2.505   2.816  0.4094 -0.1483 -0.0770
    1DIPC   PO422130  23.397   2.397   3.104 -0.1493 -0.0768 -0.4242
    1DIPC   GL122131  23.387   2.526   3.479 -0.0757  0.2146 -0.2522
    1DIPC   GL222132  23.054   2.412   3.488  0.0772 -0.2802  0.1837
    1DIPC   C1A22133  23.494   2.767   3.798  0.0501 -0.0288 -0.1935
    1DIPC   D2A22134  23.458   3.038   4.300 -0.1277  0.1387 -0.0887
    1DIPC   D3A22135  23.111   3.425   4.269 -0.0792  0.1379  0.2428
    1DIPC   C4A22136  23.069   3.603   4.585  0.0906  0.3085 -0.0130
    1DIPC   C1B22137  23.068   2.369   3.931  0.0564 -0.1431  0.0250
    1DIPC   D2B22138  23.301   2.537   4.243 -0.0276  0.1260 -0.0370
    1DIPC   D3B22139  23.315   2.391   4.606  0.1048  0.0712 -0.0931
    1DIPC   C4B22140  23.373   1.923   4.648  0.3786 -0.1627 -0.0951
    1DIPC   NC322141  27.136  12.311   1.684  0.0173 -0.1096 -0.1561
    1DIPC   PO422142  27.266  12.720   1.667  0.0315  0.1542  0.0311
    1DIPC   GL122143  27.395  12.647   1.992 -0.0060 -0.1447 -0.1574
    1DIPC   GL222144  27.749  12.531   1.969 -0.1736  0.0131  0.1737
    1DIPC   C1A22145  27.498  12.925   2.289  0.1902 -0.0111  0.3943
    1DIPC   D2A22146  27.571  13.083   2.708 -0.1626 -0.2586 -0.2405
    1DIPC   D3A22147  27.525  13.441   2.481  0.0509 -0.0205 -0.3344
    1DIPC   C4A22148  27.478  13.822   2.731 -0.0728  0.4959  0.3789
    1DIPC   C1B22149  28.023  12.613   2.380 -0.0520 -0.1250  0.1821
    1DIPC   D2B22150  28.303  12.662   2.802  0.0623  0.1519  0.0136
    1DIPC   D3B22151  28.409  12.742   3.245  0.2414 -0.2885 -0.0188
    1DIPC   C4B22152  28.743  12.948   3.471  0.2443  0.0640 -0.0777
    1DIPC   NC322153   7.183  14.111   2.884 -0.1956 -0.0203 -0.0455
    1DIPC   PO422154   6.745  13.990   3.001  0.0977 -0.0117  0.0413
    1DIPC   GL122155   6.659  13.938   3.484 -0.0335  0.0704 -0.1352
    1DIPC   GL222156   6.558  13.599   3.588  0.0291 -0.0725  0.3158
    1DIPC   C1A22157   6.555  13.986   3.862  0.0745  0.2486  0.1939
    1DIPC   D2A22158   6.415  13.774   4.144  0.1115 -0.2250  0.1365
    1DIPC   D3A22159   6.859  13.979   4.290 -0.1643  0.1868 -0.0107
    1DIPC   C4A22160   7.092  14.151   4.678 -0.0448 -0.2506  0.0057
    1DIPC   C1B22161   6.824  13.511   3.908  0.0390  0.3878 -0.2362
    1DIPC   D2B22162   7.184  13.616   4.260  0.2367  0.1242  0.0689
    1DIPC   D3B22163   7.383  13.904   4.399  0.1045 -0.3223 -0.2362
    1DIPC   C4B22164   7.750  13.935   4.394 -0.1103  0.0254  0.0712
    1DIPC   NC322165   3.511  22.696   1.562 -0.1069  0.1256 -0.1765
    1DIPC   PO422166   3.877  22.812   1.426  0.1062  0.1006 -0.2544
    1DIPC   GL122167   3.857  22.833   1.900 -0.1357 -0.4963  0.1056
    1DIPC   GL222168   3.658  22.524   2.100  0.0033  0.1701 -0.1647
    1DIPC   C1A22169   3.689  23.137   2.250  0.0807  0.1953  0.1530
    1DIPC   D2A22170   3.713  23.166   2.668  0.1248 -0.1279  0.1679
    1DIPC   D3A22171   3.840  22.807   3.030  0.0482 -0.2442  0.0096
    1DIPC   C4A22172   3.926  22.785   3.468 -0.0931  0.3108  0.1564
    1DIPC   C1B22173   3.778  22.301   2.485  0.0263  0.0228 -0.1054
    1DIPC   D2B22174   3.571  22.049   2.721  0.1136 -0.2051  0.1202
    1DIPC   D3B22175   3.447  22.203   3.148  0.1701  0.1161  0.0226
    1DIPC   C4B22176   3.492  22.161   3.646  0.0442 -0.1925 -0.1306
    1DIPC   NC322177   0.427  25.540   2.676  0.1011 -0.0225  0.0714
    1DIPC   PO422178  -0.024  25.511   2.667  0.5194  0.0768  0.0579
    1DIPC   GL122179   0.128  25.348   3.104  0.0355 -0.0602 -0.0252
    1DIPC   GL222180   0.038  25.104   3.053  0.1359  0.0083 -0.0848
    1DIPC   C1A22181   0.139  25.473   3.489  0.2459 -0.1135 -0.0533
    1DIPC   D2A22182   0.358  25.316   3.858  0.0307  0.1431 -0.0860
    1DIPC   D3A22183  -0.001  25.755   3.933  0.1308  0.2953 -0.2773
    1DIPC   C4A22184  -0.233  25.799   4.265  0.2224  0.2297  0.4287
    1DIPC   C1B22185   0.010  24.668   3.239 -0.0272  0.0581 -0.1905
    1DIPC   D2B22186  -0.035  24.407   3.579  0.1739 -0.0057  0.3417
    1DIPC   D3B22187  -0.214  24.312   3.993 -0.0664 -0.0440  0.2132
    1DIPC   C4B22188  -0.515  24.367   4.369  0.2043 -0.2197 -0.0011
    1DIPC   NC322189  24.608  11.782   2.573 -0.0661 -0.1680  0.1528
    1DIPC   PO422190  24.491  12.225   2.521 -0.0213 -0.3848 -0.1860
    1DIPC   GL122191  24.838  12.230   2.858  0.2013 -0.0712  0.0234
    1DIPC   GL222192  25.029  11.891   2.877 -0.0313  0.0567  0.0898
    1DIPC   C1A22193  24.820  12.318   3.294  0.1720 -0.1479  0.1006
    1DIPC   D2A22194  24.571  12.377   3.622 -0.0517 -0.1668  0.1426
    1DIPC   D3A22195  24.565  12.382   3.986  0.1695 -0.0180 -0.0692
    1DIPC   C4A22196  24.253  12.542   4.174  0.0258  0.0728 -0.0965
    1DIPC   C1B22197  24.979  11.924   3.378  0.1103  0.0248  0.3946
    1DIPC   D2B22198  24.977  12.066   3.835  0.0168  0.0514 -0.0671
    1DIPC   D3B22199  24.860  11.750   4.162 -0.0584 -0.0498 -0.2921
    1DIPC   C4B22200  24.479  11.847   4.469 -0.0388  0.1543  0.2319
    1DIPC   NC322201   6.334   1.308   3.646 -0.0389 -0.1281  0.2729
    1DIPC   PO422202   5.951   1.115   3.823  0.1994 -0.3922  0.0765
    1DIPC   GL122203   6.235   1.177   4.181 -0.0007 -0.0435  0.4156
    1DIPC   GL222204   6.525   1.168   4.147 -0.1157 -0.0120 -0.1065
    1DIPC   C1A22205   6.365   1.314   4.619 -0.1773 -0.2807 -0.3162
    1DIPC   D2A22206   6.749   1.212   4.901 -0.1033  0.0724  0.0704
    1DIPC   D3A22207   6.531   1.550   5.043 -0.0517  0.0123  0.2238
    1DIPC   C4A22208   6.491   1.841   5.437 -0.2035  0.1637  0.1769
    1DIPC   C1B22209   6.701   1.017   4.380  0.0295 -0.0200 -0.0699
    1DIPC   D2B22210   7.127   1.068   4.465  0.2356 -0.2333 -0.0326
    1DIPC   D3B22211   7.263   1.087   4.895 -0.2362 -0.0353 -0.1400
    1DIPC   C4B22212   7.552   1.297   5.203  0.0190  0.3497  0.0665
    1DIPC   NC322213  21.349   7.091   2.709  0.1628  0.1900 -0.3094
    1DIPC   PO422214  21.358   7.166   3.170  0.0081  0.1096 -0.0322
    1DIPC   GL122215  21.210   7.235   3.605  0.1724  0.1122 -0.2135
    1DIPC   GL222216  21.297   6.969   3.695 -0.0861  0.2306  0.1292
    1DIPC   C1A22217  21.199   7.404   3.984  0.5140 -0.0851 -0.1846
    1DIPC   D2A22218  21.039   7.391   4.361  0.0978 -0.0821  0.1157
    1DIPC   D3A22219  20.797   7.678   4.515  0.1681  0.1686 -0.0114
    1DIPC   C4A22220  20.737   7.921   4.836 -0.0683 -0.1786  0.1910
    1DIPC   C1B22221  21.172   6.920   4.137 -0.0337 -0.2782  0.0765
    1DIPC   D2B22222  20.983   6.817   4.510 -0.1361  0.0705  0.1361
    1DIPC   D3B22223  20.998   7.212   4.858  0.4814  0.3162 -0.0633
    1DIPC   C4B22224  21.069   7.140   5.256 -0.0019  0.0017 -0.1799
    1DIPC   NC322225   3.030   7.907   3.048 -0.0789 -0.2576 -0.0339
    1DIPC   PO422226   3.096   8.340   3.093 -0.4179 -0.0246 -0.3729
    1DIPC   GL122227   3.002   8.247   3.460  0.0621  0.2591  0.0286
    1DIPC   GL222228   2.837   7.854   3.493 -0.5892 -0.1189  0.1217
    1DIPC   C1A22229   3.073   8.353   3.904 -0.4004 -0.1265  0.0928
    1DIPC   D2A22230   3.070   8.394   4.437 -0.0160  0.1247 -0.1769
    1DIPC   D3A22231   3.121   8.122   4.758 -0.3885  0.0410  0.0099
    1DIPC   C4A22232   3.465   7.827   4.789  0.1523  0.0701  0.0723
    1DIPC   C1B22233   2.710   8.010   3.946  0.0933 -0.1318  0.0513
    1DIPC   D2B22234   2.660   8.189   4.362  0.0072  0.0627 -0.1509
    1DIPC   D3B22235   2.259   8.240   4.532  0.1128  0.0067 -0.0874
    1DIPC   C4B22236   2.125   8.247   4.965  0.2411  0.2929 -0.3543
    1DIPC   NC322237   8.987  25.518   2.141  0.3230 -0.1849 -0.3413
    1DIPC   PO422238   8.960  25.613   2.566 -0.0588  0.1198 -0.1870
    1DIPC   GL122239   9.077  25.822   3.017  0.0998 -0.3567 -0.3222
    1DIPC   GL222240   8.930  26.084   2.960  0.2065  0.0122  0.4961
    1DIPC   C1A22241   9.089  25.705   3.520 -0.2311  0.2259 -0.1037
    1DIPC   D2A22242   9.205  25.565   4.003 -0.0108 -0.1284  0.2950
    1DIPC   D3A22243   9.389  25.963   4.217  0.1850  0.0325  0.3234
    1DIPC   C4A22244   9.665  26.212   4.168 -0.1644  0.1677 -0.2030
    1DIPC   C1B22245   9.168  26.278   3.343  0.1714 -0.1732 -0.2216
    1DIPC   D2B22246   9.333  26.186   3.746  0.1225 -0.0057  0.1081
    1DIPC   D3B22247   9.546  25.833   3.762  0.1438 -0.1266 -0.2616
    1DIPC   C4B22248   9.828  25.760   3.968  0.0155  0.0162 -0.1179
    1DIPC   NC322249   5.029  15.526   2.332 -0.0219  0.0872 -0.2530
    1DIPC   PO422250   5.394  15.851   2.326 -0.1429 -0.2783 -0.0481
    1DIPC   GL122251   5.508  16.034   2.800 -0.1427  0.2032 -0.2654
    1DIPC   GL222252   5.442  16.437   2.632 -0.0083 -0.1441  0.1317
    1DIPC   C1A22253   5.452  16.069   3.274  0.0895  0.0524 -0.1010
    1DIPC   D2A22254   5.628  16.311   3.678  0.1681  0.1241 -0.1282
    1DIPC   D3A22255   5.252  16.337   3.868  0.0149  0.1289 -0.0098
    1DIPC   C4A22256   5.443  16.706   4.077  0.2908  0.4463 -0.1577
    1DIPC   C1B22257   5.438  16.869   2.624 -0.0358 -0.0071  0.4387
    1DIPC   D2B22258   5.405  17.316   2.571 -0.2087 -0.2179 -0.2567
    1DIPC   D3B22259   5.072  17.254   2.915  0.0072 -0.3113  0.0548
    1DIPC   C4B22260   5.165  17.295   3.289  0.4147  0.1324  0.3513
    1DIPC   NC322261  19.311   0.069   3.091 -0.1623 -0.2646 -0.1255
    1DIPC   PO422262  19.310   0.498   3.193 -0.0237 -0.0275 -0.2977
    1DIPC   GL122263  19.309   0.307   3.573 -0.1044  0.2931 -0.2485
    1DIPC   GL222264  19.131   0.004   3.587  0.2224 -0.0303  0.2697
    1DIPC   C1A22265  18.894   0.400   3.830 -0.0968 -0.0333  0.2824
    1DIPC   D2A22266  18.949   0.277   4.265 -0.3844 -0.0883  0.1870
    1DIPC   D3A22267  18.857   0.400   4.640 -0.1904 -0.1451  0.0229
    1DIPC   C4A22268  19.038   0.444   4.948  0.3218 -0.6635  0.0628
    1DIPC   C1B22269  19.187  -0.052   3.966 -0.1360  0.1909  0.2266
    1DIPC   D2B22270  19.231  -0.209   4.388 -0.2210 -0.1023  0.2571
    1DIPC   D3B22271  19.779  -0.180   4.635 -0.0152  0.0908  0.0529
    1DIPC   C4B22272  20.159  -0.088   4.756  0.1054  0.1179  0.2866
    1DIPC   NC322273  15.303  24.123   2.844  0.0051  0.0563 -0.5566
    1DIPC   PO422274  14.791  24.253   2.974 -0.1359 -0.0985 -0.1799
    1DIPC   GL122275  14.682  24.190   3.417  0.6957  0.3549  0.1537
    1DIPC   GL222276  14.394  24.135   3.470  0.2955 -0.0711  0.0089
    1DIPC   C1A22277  14.642  24.115   3.884 -0.0859 -0.0378 -0.1774
    1DIPC   D2A22278  14.912  24.167   4.204  0.0154 -0.0982  0.5086
    1DIPC   D3A22279  14.845  24.081   4.651  0.0629  0.0931 -0.1216
    1DIPC   C4A22280  14.996  23.682   4.852 -0.0047 -0.1078  0.0052
    1DIPC   C1B22281  14.311  23.775   3.637  0.1728  0.2159 -0.0150
    1DIPC   D2B22282  14.317  23.375   3.733 -0.2821 -0.1330 -0.1173
    1DIPC   D3B22283  14.469  23.568   4.045 -0.1362  0.0044  0.1059
    1DIPC   C4B22284  14.483  23.844   4.373  0.0974 -0.1368 -0.0430
    1DIPC   NC322285   9.374   1.989   3.239 -0.0344  0.1846  0.0196
    1DIPC   PO422286   9.184   2.389   3.149 -0.0414  0.2954 -0.1884
    1DIPC   GL122287   9.152   2.369   3.605  0.0740  0.0067 -0.2564
    1DIPC   GL222288   9.248   2.700   3.635 -0.0509  0.1777 -0.0959
    1DIPC   C1A22289   9.313   2.259   3.915  0.4003  0.2629  0.2740
    1DIPC   D2A22290   9.777   2.126   4.002  0.0501 -0.2313 -0.3077
    1DIPC   D3A22291   9.753   2.013   4.510 -0.0184  0.0186  0.0912
    1DIPC   C4A22292  10.179   1.955   4.706  0.1158 -0.1713 -0.1959
    1DIPC   C1B22293   9.416   3.064   3.976  0.1265  0.2335 -0.3333
    1DIPC   D2B22294   9.432   3.401   4.172 -0.2801 -0.0381  0.1343
    1DIPC   D3B22295   9.178   3.603   4.359  0.2567  0.4419  0.1280
    1DIPC   C4B22296   8.913   3.352   4.664  0.2163  0.0207 -0.0092
    1DIPC   NC322297   2.709  21.211   1.372  0.2589 -0.0489 -0.1308
    1DIPC   PO422298   2.530  20.865   1.571  0.0661  0.0719 -0.2006
    1DIPC   GL122299   2.726  20.989   1.973 -0.1100 -0.0926  0.1090
    1DIPC   GL222300   2.778  21.274   1.921  0.4049 -0.1193  0.1162
    1DIPC   C1A22301   2.736  20.964   2.432  0.2621  0.1547 -0.2174
    1DIPC   D2A22302   2.978  20.916   2.807  0.0751  0.1629 -0.0361
    1DIPC   D3A22303   2.911  20.721   3.189 -0.3321 -0.3138 -0.0768
    1DIPC   C4A22304   3.023  20.368   3.194 -0.1722  0.2116  0.2194
    1DIPC   C1B22305   2.667  21.487   2.392 -0.0272  0.0860  0.3015
    1DIPC   D2B22306   2.840  21.431   2.782 -0.0810  0.0725 -0.1189
    1DIPC   D3B22307   2.892  21.484   3.217  0.2191 -0.2937 -0.1072
    1DIPC   C4B22308   2.591  21.330   3.442  0.4517  0.1069 -0.1177
    1DIPC   NC322309   6.740  18.978   1.464  0.1950 -0.0137 -0.0666
    1DIPC   PO422310   6.630  18.945   1.914  0.0373 -0.2128 -0.1860
    1DIPC   GL122311   6.895  19.008   2.359  0.0396 -0.0033  0.4930
    1DIPC   GL222312   6.798  19.282   2.430 -0.1187  0.2426  0.2243
    1DIPC   C1A22313   7.065  18.889   2.655  0.0463 -0.1581  0.3203
    1DIPC   D2A22314   6.788  18.990   3.045 -0.3000  0.1635  0.2243
    1DIPC   D3A22315   6.341  18.892   3.233  0.3182 -0.0599  0.0741
    1DIPC   C4A22316   6.009  19.028   2.852  0.0074  0.1208  0.0018
    1DIPC   C1B22317   7.017  19.392   2.892 -0.2509 -0.2778  0.1873
    1DIPC   D2B22318   7.151  19.503   3.362 -0.2847 -0.3693  0.1074
    1DIPC   D3B22319   7.357  19.939   3.614 -0.0073 -0.0232 -0.0305
    1DIPC   C4B22320   7.032  20.260   3.882  0.2135 -0.0983 -0.1679
    1DIPC   NC322321   6.091  25.948   2.351  0.0227 -0.2603  0.3491
    1DIPC   PO422322   6.298  26.288   2.234  0.0465 -0.1527  0.1379
    1DIPC   GL122323   6.451  26.415   2.656 -0.0411  0.0002 -0.2444
    1DIPC   GL222324   6.490  26.028   2.740 -0.1873  0.0665 -0.2755
    1DIPC   C1A22325   6.241  26.457   3.147 -0.0107  0.2716 -0.3485
    1DIPC   D2A22326   5.928  26.371   3.321  0.2943  0.3499  0.2732
    1DIPC   D3A22327   6.094  26.176   3.669  0.1680 -0.0057  0.1489
    1DIPC   C4A22328   6.294  26.382   4.083 -0.0245 -0.2107 -0.4712
    1DIPC   C1B22329   6.483  25.593   2.775 -0.2917  0.0931 -0.0789
    1DIPC   D2B22330   6.534  25.127   2.937  0.2524  0.1268 -0.2773
    1DIPC   D3B22331   6.312  25.039   2.715  0.3497  0.2527 -0.1963
    1DIPC   C4B22332   6.347  25.313   2.401  0.0474 -0.1662  0.4145
    1DIPC   NC322333   5.321  24.812   1.888 -0.1693 -0.0905  0.1305
    1DIPC   PO422334   5.682  25.065   2.091  0.0622  0.0083 -0.0590
    1DIPC   GL122335   5.487  25.009   2.456 -0.0208 -0.3794  0.2216
    1DIPC   GL222336   5.204  25.086   2.376  0.1083 -0.2342 -0.2253
    1DIPC   C1A22337   5.342  25.074   2.846 -0.1805 -0.3121 -0.0896
    1DIPC   D2A22338   5.301  25.001   3.244  0.0892  0.2526 -0.1150
    1DIPC   D3A22339   4.933  25.104   3.455  0.2440  0.2358 -0.1707
    1DIPC   C4A22340   4.838  25.477   3.510 -0.0626 -0.1288 -0.2986
    1DIPC   C1B22341   5.006  24.755   2.736 -0.1756 -0.2856  0.0853
    1DIPC   D2B22342   4.939  24.685   3.207  0.2405 -0.0153 -0.2207
    1DIPC   D3B22343   4.620  24.421   3.064 -0.0882  0.2420  0.0927
    1DIPC   C4B22344   4.333  24.439   3.347 -0.0875 -0.0011 -0.0745
    1DIPC   NC322345  16.964   5.716   3.340  0.0676 -0.0111 -0.0342
    1DIPC   PO422346  16.567   5.836   3.562  0.1323  0.3444 -0.2852
    1DIPC   GL122347  16.413   5.581   3.911  0.0370  0.0817  0.1389
    1DIPC   GL222348  16.474   5.227   3.990 -0.3988  0.1293 -0.0897
    1DIPC   C1A22349  16.315   5.472   4.352 -0.1149  0.0622  0.2081
    1DIPC   D2A22350  15.929   5.354   4.597 -0.0351 -0.0471  0.0622
    1DIPC   D3A22351  15.683   5.434   4.953 -0.0463 -0.0645  0.2657
    1DIPC   C4A22352  15.762   5.754   5.356  0.0731 -0.0849  0.2191
    1DIPC   C1B22353  16.830   5.417   4.224 -0.0092 -0.1564  0.3002
    1DIPC   D2B22354  17.058   5.729   4.488 -0.1173  0.2057 -0.1837
    1DIPC   D3B22355  16.694   5.959   4.362 -0.1977 -0.0333 -0.1654
    1DIPC   C4B22356  16.710   6.375   4.437 -0.2018 -0.0916 -0.2771
    1DIPC   NC322357  24.181   3.681   2.885 -0.1599  0.1571 -0.3318
    1DIPC   PO422358  24.424   3.344   2.947  0.0145  0.0120  0.1092
    1DIPC   GL122359  24.652   3.500   3.215 -0.2703 -0.0968 -0.1094
    1DIPC   GL222360  24.595   3.340   3.420 -0.2660 -0.0922 -0.2312
    1DIPC   C1A22361  24.736   3.883   3.412  0.0191  0.1787 -0.0504
    1DIPC   D2A22362  24.815   4.322   3.332 -0.1853 -0.0539  0.0145
    1DIPC   D3A22363  24.466   4.306   3.596 -0.0528 -0.0062  0.0786
    1DIPC   C4A22364  24.304   4.617   3.938 -0.0062 -0.1488 -0.0128
    1DIPC   C1B22365  24.730   3.336   3.796  0.1162 -0.1825  0.2453
    1DIPC   D2B22366  25.121   3.203   3.997  0.0155 -0.3457 -0.1479
    1DIPC   D3B22367  25.072   3.365   4.501  0.0051  0.3269 -0.2595
    1DIPC   C4B22368  24.668   3.349   4.791  0.1871  0.3337  0.0453
    1DIPC   NC322369  18.385   1.121   3.431 -0.1546  0.1964  0.2352
    1DIPC   PO422370  18.332   0.815   3.764  0.2601 -0.2616  0.2035
    1DIPC   GL122371  18.207   0.723   4.254  0.0231  0.2053 -0.0021
    1DIPC   GL222372  18.528   0.744   4.388 -0.3121  0.2348 -0.1092
    1DIPC   C1A22373  18.074   0.759   4.683 -0.2076 -0.1389  0.0319
    1DIPC   D2A22374  17.978   1.170   4.918 -0.2685  0.1958  0.2154
    1DIPC   D3A22375  17.657   0.935   5.023 -0.0685  0.0052  0.0079
    1DIPC   C4A22376  17.209   1.061   4.997 -0.1502  0.1047 -0.0075
    1DIPC   C1B22377  18.508   0.797   4.809 -0.1946  0.0204  0.0522
    1DIPC   D2B22378  18.376   0.521   5.077  0.0760  0.1410 -0.1129
    1DIPC   D3B22379  18.277   0.924   5.255  0.2362 -0.2245 -0.0077
    1DIPC   C4B22380  18.702   1.118   5.204 -0.0390  0.0698 -0.0500
    1DIPC   NC322381  27.528  19.517   2.044  0.0857 -0.0459  0.2560
    1DIPC   PO422382  27.719  19.426   2.432  0.1869  0.0496  0.0678
    1DIPC   GL122383  27.897  19.704   2.777 -0.0684 -0.0865 -0.1025
    1DIPC   GL222384  28.114  19.963   2.784  0.0851 -0.0004 -0.0265
    1DIPC   C1A22385  27.976  19.684   3.196  0.0081 -0.0481  0.2812
    1DIPC   D2A22386  27.956  19.558   3.612 -0.3375  0.1193 -0.1940
    1DIPC   D3A22387  27.727  19.858   3.929  0.0655  0.3240  0.1101
    1DIPC   C4A22388  27.522  20.299   3.994  0.1079 -0.1591 -0.3368
    1DIPC   C1B22389  28.444  19.848   2.997  0.2034  0.2123  0.0572
    1DIPC   D2B22390  28.458  19.799   3.439  0.3492  0.0660  0.0234
    1DIPC   D3B22391  28.743  20.004   3.643 -0.2010  0.0359 -0.1399
    1DIPC   C4B22392  29.228  19.865   3.623  0.1992  0.0443 -0.1616
    1DIPC   NC322393  20.082  27.989   3.053  0.1015  0.1421 -0.0123
    1DIPC   PO422394  20.210  28.260   2.805 -0.3008 -0.1307 -0.0682
    1DIPC   GL122395  20.487  28.333   3.213  0.2744 -0.1810  0.2722
    1DIPC   GL222396  20.413  28.576   3.433  0.0116  0.2669 -0.0831
    1DIPC   C1A22397  20.690  28.253   3.692  0.2149 -0.1517 -0.5389
    1DIPC   D2A22398  20.759  28.611   3.935  0.1299 -0.2989  0.0433
    1DIPC   D3A22399  20.607  28.320   4.232  0.1162 -0.0625  0.2855
    1DIPC   C4A22400  20.774  28.329   4.634  0.3101 -0.0084  0.2801
    1DIPC   C1B22401  20.259  28.764   3.861 -0.3754 -0.3947  0.2136
    1DIPC   D2B22402  20.416  28.825   4.242 -0.0136  0.0970  0.0632
    1DIPC   D3B22403  20.195  29.178   4.507  0.1758  0.3833  0.1879
    1DIPC   C4B22404  20.191  29.596   4.498  0.0140  0.0059  0.1348
    1DIPC   NC322405   5.686  12.488   3.052 -0.0664  0.2682 -0.2300
    1DIPC   PO422406   6.112  12.502   3.281 -0.3109  0.2068 -0.0722
    1DIPC   GL122407   6.260  12.709   3.566  0.0293  0.1228  0.1410
    1DIPC   GL222408   6.072  13.049   3.640  0.0988  0.2774 -0.3409
    1DIPC   C1A22409   6.301  12.848   4.048  0.0674  0.2435 -0.1400
    1DIPC   D2A22410   6.316  12.874   4.440  0.0240 -0.1103 -0.0392
    1DIPC   D3A22411   6.419  12.987   4.764 -0.2439 -0.3829 -0.0524
    1DIPC   C4A22412   6.193  13.204   5.016  0.1989 -0.0888  0.2770
    1DIPC   C1B22413   5.932  13.128   3.967  0.3077 -0.0692 -0.1740
    1DIPC   D2B22414   5.900  13.117   4.384  0.1376  0.1574 -0.0674
    1DIPC   D3B22415   5.530  12.957   4.340  0.3430  0.2419  0.1904
    1DIPC   C4B22416   5.108  12.778   4.443  0.1036  0.1863  0.4320
    1DIPC   NC322417  23.158   6.570   3.472 -0.0352 -0.0102 -0.0917
    1DIPC   PO422418  22.780   6.942   3.470 -0.1904 -0.1162  0.0504
    1DIPC   GL122419  22.759   6.626   3.792 -0.0672 -0.1053  0.1127
    1DIPC   GL222420  22.438   6.563   3.739 -0.0776  0.1180  0.1680
    1DIPC   C1A22421  22.873   6.461   4.284 -0.1970 -0.6210 -0.5974
    1DIPC   D2A22422  22.768   6.162   4.612 -0.0743  0.1584  0.1702
    1DIPC   D3A22423  22.562   5.938   4.321  0.0994  0.2721 -0.1541
    1DIPC   C4A22424  22.265   6.032   4.010 -0.0291 -0.2790  0.0917
    1DIPC   C1B22425  22.361   6.514   4.110  0.0574  0.1058 -0.0620
    1DIPC   D2B22426  22.545   6.688   4.613  0.1856 -0.0919  0.1035
    1DIPC   D3B22427  22.567   6.511   5.012 -0.0914  0.1765 -0.2484
    1DIPC   C4B22428  22.448   6.141   5.329  0.1495 -0.2001 -0.0301
    1DIPC   NC322429  21.712   6.091   3.231 -0.0114  0.0922  0.0378
    1DIPC   PO422430  22.028   6.368   3.401  0.2833 -0.1799 -0.0193
    1DIPC   GL122431  21.886   6.311   3.826 -0.1327  0.0994  0.3017
    1DIPC   GL222432  21.723   6.600   3.888  0.1479 -0.0296 -0.1875
    1DIPC   C1A22433  21.755   6.125   4.157 -0.0229  0.1222 -0.0737
    1DIPC   D2A22434  21.976   5.812   4.386  0.1851  0.0576  0.0085
    1DIPC   D3A22435  21.778   6.003   4.785 -0.1137  0.3554  0.0425
    1DIPC   C4A22436  21.383   6.013   4.859  0.1095  0.0832 -0.1241
    1DIPC   C1B22437  21.857   6.559   4.327 -0.0565 -0.2166 -0.2797
    1DIPC   D2B22438  22.143   6.389   4.687 -0.2107  0.0136  0.1533
    1DIPC   D3B22439  22.089   6.749   4.801  0.0879 -0.0762 -0.1754
    1DIPC   C4B22440  22.122   6.954   4.416 -0.0210  0.0765 -0.0654
    1DIPC   NC322441   4.771  17.264   1.416 -0.0967 -0.0446 -0.3033
    1DIPC   PO422442   4.534  17.651   1.398 -0.2702 -0.1038  0.0019
    1DIPC   GL122443   4.162  17.719   1.676  0.0847 -0.0844  0.1689
    1DIPC   GL222444   4.087  17.362   1.859 -0.1773  0.0145 -0.3538
    1DIPC   C1A22445   4.252  17.955   1.994 -0.3415 -0.0870  0.2170
    1DIPC   D2A22446   3.988  18.115   2.444 -0.1413 -0.2516 -0.0130
    1DIPC   D3A22447   4.231  18.275   2.804 -0.1273 -0.1212  0.1695
    1DIPC   C4A22448   4.421  18.507   3.068  0.0965 -0.2157  0.1346
    1DIPC   C1B22449   3.919  17.618   2.186  0.1162 -0.1809  0.1150
    1DIPC   D2B22450   3.982  17.555   2.611  0.3212  0.0711 -0.2129
    1DIPC   D3B22451   3.940  17.195   2.870 -0.0416 -0.1004 -0.0105
    1DIPC   C4B22452   3.975  17.259   3.362  0.2521 -0.3877 -0.0703
    1DIPC   NC322453  23.658   6.315   3.114  0.0139 -0.1036  0.2572
    1DIPC   PO422454  23.993   6.728   3.016  0.0125  0.1575  0.2382
    1DIPC   GL122455  23.834   6.969   3.300 -0.3215 -0.2791 -0.1029
    1DIPC   GL222456  23.968   7.242   3.240  0.0483 -0.2014  0.0345
    1DIPC   C1A22457  23.665   6.955   3.745 -0.0218 -0.0202 -0.1612
    1DIPC   D2A22458  23.632   7.309   4.196 -0.0404 -0.2002 -0.3222
    1DIPC   D3A22459  23.823   7.534   4.620 -0.0093  0.1054  0.1792
    1DIPC   C4A22460  23.858   7.959   4.632 -0.2873 -0.0503  0.0670
    1DIPC   C1B22461  24.330   7.090   3.448  0.2319  0.2384  0.0243
    1DIPC   D2B22462  24.590   7.181   3.811  0.3344 -0.1414  0.0097
    1DIPC   D3B22463  24.613   7.122   4.188 -0.0880  0.1395 -0.1740
    1DIPC   C4B22464  24.763   7.438   4.425  0.1918  0.0163  0.3907
    1DIPC   NC322465   7.893  21.685   1.942  0.1898  0.0845  0.0600
    1DIPC   PO422466   7.722  21.274   2.085  0.0420 -0.2443  0.0043
    1DIPC   GL122467   7.564  21.323   2.370  0.1277  0.1810  0.0681
    1DIPC   GL222468   7.283  21.147   2.364  0.2626  0.1838 -0.1587
    1DIPC   C1A22469   7.331  21.308   2.846 -0.1535  0.2272 -0.1702
    1DIPC   D2A22470   6.934  21.254   2.991 -0.2274 -0.1320  0.0146
    1DIPC   D3A22471   7.113  21.027   3.421  0.3848  0.3970  0.0560
    1DIPC   C4A22472   6.821  20.675   3.507 -0.1094  0.2625 -0.0654
    1DIPC   C1B22473   7.040  21.492   2.514 -0.0832 -0.0221 -0.1206
    1DIPC   D2B22474   6.655  21.555   2.717 -0.1965 -0.2507  0.0479
    1DIPC   D3B22475   6.732  21.770   3.076 -0.0610 -0.1536  0.4524
    1DIPC   C4B22476   7.139  21.569   3.348 -0.2764  0.0019  0.0564
    1DIPC   NC322477  17.794  28.049   2.847  0.2244  0.1017 -0.2262
    1DIPC   PO422478  17.347  27.953   2.868  0.0201 -0.0070  0.0232
    1DIPC   GL122479  17.196  27.850   3.280 -0.1288  0.1804  0.0190
    1DIPC   GL222480  16.861  27.908   3.297  0.0208 -0.0346  0.1073
    1DIPC   C1A22481  17.398  27.701   3.663 -0.0447  0.0060  0.2495
    1DIPC   D2A22482  17.497  27.359   3.992 -0.0451 -0.0552  0.1829
    1DIPC   D3A22483  17.173  27.633   4.180  0.0308  0.1297 -0.0259
    1DIPC   C4A22484  16.933  27.807   3.766 -0.0396  0.1193  0.1151
    1DIPC   C1B22485  16.391  27.865   3.472  0.0852 -0.1321  0.2168
    1DIPC   D2B22486  16.198  27.926   3.905  0.1065  0.2191  0.1577
    1DIPC   D3B22487  16.008  27.573   4.090 -0.1625 -0.1055 -0.0039
    1DIPC   C4B22488  16.348  27.186   4.238  0.3497 -0.1170  0.1421
    1DIPC   NC322489  27.612  11.318   2.112  0.2154 -0.2527 -0.0196
    1DIPC   PO422490  27.338  11.107   1.891  0.1722 -0.0724  0.4666
    1DIPC   GL122491  27.273  10.955   2.243  0.1343 -0.0979 -0.0405
    1DIPC   GL222492  27.021  10.815   2.386  0.0986 -0.1649  0.1405
    1DIPC   C1A22493  27.250  11.142   2.645  0.2708 -0.0101 -0.0460
    1DIPC   D2A22494  27.567  11.407   2.856  0.0820  0.1293  0.0805
    1DIPC   D3A22495  27.358  11.782   3.023 -0.1208 -0.3385  0.1208
    1DIPC   C4A22496  27.532  12.166   3.005 -0.0350 -0.1956 -0.1824
    1DIPC   C1B22497  26.668  10.909   2.772  0.0539 -0.2072 -0.1490
    1DIPC   D2B22498  26.861  10.888   3.235 -0.3690 -0.1611  0.1174
    1DIPC   D3B22499  26.772  10.807   3.712 -0.1935 -0.0426 -0.0506
    1DIPC   C4B22500  26.860  11.065   3.998 -0.0403  0.0370  0.0734
    1DIPC   NC322501  13.346   0.937   3.903  0.3031 -0.0007  0.0803
    1DIPC   PO422502  12.970   1.206   3.939  0.1257  0.2221  0.0008
    1DIPC   GL122503  12.674   1.444   4.217  0.0151  0.1605  0.1387
    1DIPC   GL222504  12.669   1.776   4.248 -0.1830  0.2720 -0.3900
    1DIPC   C1A22505  12.635   1.186   4.501 -0.3964 -0.0521  0.0317
    1DIPC   D2A22506  12.832   0.872   4.771 -0.1643 -0.2879 -0.0420
    1DIPC   D3A22507  12.379   0.929   4.916 -0.1223 -0.0384  0.2633
    1DIPC   C4A22508  12.060   0.655   4.729  0.2788 -0.0006  0.1150
    1DIPC   C1B22509  12.773   1.665   4.695  0.0949 -0.1332  0.1457
    1DIPC   D2B22510  13.015   1.352   4.786 -0.0808  0.1046 -0.4155
    1DIPC   D3B22511  13.138   1.548   5.120  0.0606  0.3479  0.1121
    1DIPC   C4B22512  13.384   1.846   5.250  0.0150 -0.0454 -0.2285
    1DIPC   NC322513  26.688   9.633   1.638  0.0118  0.1438  0.0069
    1DIPC   PO422514  26.724   9.412   2.027  0.0301 -0.1338  0.2044
    1DIPC   GL122515  26.376   9.547   2.363 -0.2851 -0.0840  0.2144
    1DIPC   GL222516  26.029   9.777   2.309  0.1194 -0.5107  0.2575
    1DIPC   C1A22517  26.460   9.545   2.774 -0.1130  0.0455  0.0130
    1DIPC   D2A22518  26.619   9.386   3.164 -0.0903 -0.0094 -0.2247
    1DIPC   D3A22519  26.393   9.768   3.417 -0.2409  0.0951 -0.0627
    1DIPC   C4A22520  26.515   9.897   3.902  0.1481 -0.0325  0.2830
    1DIPC   C1B22521  26.403   9.994   2.523  0.0613  0.2262 -0.0527
    1DIPC   D2B22522  26.550  10.040   2.979  0.1381 -0.0627 -0.2277
    1DIPC   D3B22523  26.969   9.846   2.931 -0.1425  0.1208  0.3406
    1DIPC   C4B22524  27.166   9.486   3.058 -0.1501  0.0986  0.2259
    1DIPC   NC322525  27.175   0.840   2.250 -0.2633 -0.0944  0.3425
    1DIPC   PO422526  27.187   1.109   2.573  0.2236  0.1648  0.0364
    1DIPC   GL122527  26.979   1.167   3.011  0.0140  0.0009  0.4622
    1DIPC   GL222528  26.926   1.579   2.967 -0.0556  0.2983  0.0968
    1DIPC   C1A22529  26.754   1.021   3.281  0.0912 -0.1128 -0.2345
    1DIPC   D2A22530  26.545   1.000   3.801 -0.1263  0.2771  0.0773
    1DIPC   D3A22531  26.414   1.267   4.018 -0.1738 -0.0151 -0.0549
    1DIPC   C4A22532  25.977   1.089   4.104  0.0641 -0.1175  0.1674
    1DIPC   C1B22533  26.670   1.502   3.435  0.0014  0.0471  0.2007
    1DIPC   D2B22534  26.781   1.550   3.859  0.1038  0.2982 -0.0627
    1DIPC   D3B22535  26.848   1.359   4.272  0.0099  0.1863  0.1999
    1DIPC   C4B22536  26.574   1.121   4.553 -0.1759 -0.0636 -0.1917
    1DIPC   NC322537  20.609  27.270   2.845  0.1312 -0.0059 -0.2647
    1DIPC   PO422538  21.009  27.668   2.777 -0.0280  0.1097  0.1625
    1DIPC   GL122539  20.911  27.529   3.216 -0.2811  0.0929 -0.1961
    1DIPC   GL222540  20.664  27.448   3.347  0.0284  0.3295  0.2832
    1DIPC   C1A22541  21.165  27.410   3.524 -0.0385 -0.1550  0.2051
    1DIPC   D2A22542  21.594  27.377   3.638 -0.2129  0.2178 -0.1527
    1DIPC   D3A22543  22.108  27.253   3.501  0.1104  0.0809  0.0375
    1DIPC   C4A22544  22.371  26.962   3.747  0.1571 -0.0103 -0.1077
    1DIPC   C1B22545  20.659  27.345   3.704 -0.0670  0.0491  0.2877
    1DIPC   D2B22546  20.874  27.463   3.917  0.1162 -0.1380  0.0191
    1DIPC   D3B22547  20.525  27.771   4.057  0.1823 -0.0071 -0.2972
    1DIPC   C4B22548  20.416  27.743   4.434  0.0972  0.2023  0.1280
    1DIPC   NC322549   8.567   3.770   3.329 -0.1579 -0.1719 -0.0857
    1DIPC   PO422550   8.851   3.433   3.313 -0.0759  0.2921  0.1805
    1DIPC   GL122551   8.727   3.365   3.640  0.0386  0.1591 -0.0828
    1DIPC   GL222552   8.961   3.289   3.862  0.2242 -0.0708 -0.2711
    1DIPC   C1A22553   8.476   3.414   4.036 -0.0983  0.1440 -0.0938
    1DIPC   D2A22554   8.627   3.515   4.338 -0.0969  0.0087  0.2206
    1DIPC   D3A22555   8.389   3.556   4.593  0.0196  0.0923 -0.1797
    1DIPC   C4A22556   8.115   3.472   4.368  0.2475 -0.0932  0.0073
    1DIPC   C1B22557   9.018   3.079   4.206 -0.3618  0.1926  0.1239
    1DIPC   D2B22558   9.384   3.030   4.517  0.0661  0.0903  0.0481
    1DIPC   D3B22559   9.816   3.184   4.523 -0.3003  0.0359  0.2300
    1DIPC   C4B22560   9.883   3.384   4.967 -0.0272  0.2149  0.0258
    1DIPC   NC322561   1.835  21.869   1.479 -0.0778 -0.0470  0.0592
    1DIPC   PO422562   1.833  22.246   1.820 -0.3150  0.0904  0.0496
    1DIPC   GL122563   1.801  22.103   2.167  0.0664 -0.0220  0.0753
    1DIPC   GL222564   1.646  21.865   2.263  0.2180 -0.0219 -0.0443
    1DIPC   C1A22565   2.016  22.112   2.668  0.1075  0.0060  0.2393
    1DIPC   D2A22566   2.207  22.220   3.038  0.0243  0.0990 -0.3105
    1DIPC   D3A22567   2.114  21.979   3.422 -0.2971  0.0745  0.2658
    1DIPC   C4A22568   2.266  21.624   3.629  0.0277 -0.1059 -0.0457
    1DIPC   C1B22569   1.602  21.866   2.670 -0.0668  0.2045  0.0498
    1DIPC   D2B22570   1.305  21.975   3.034 -0.1958 -0.1886  0.0799
    1DIPC   D3B22571   1.407  21.870   3.505  0.0411 -0.2532  0.0828
    1DIPC   C4B22572   1.704  21.595   3.541  0.2641  0.0192  0.0361
    1DIPC   NC322573  25.416   5.798   2.928  0.1418  0.1005  0.1564
    1DIPC   PO422574  25.157   6.096   3.175  0.0146  0.0066  0.2220
    1DIPC   GL122575  25.101   5.904   3.563  0.0198 -0.3887 -0.0381
    1DIPC   GL222576  25.148   5.620   3.457 -0.1420  0.0844  0.1457
    1DIPC   C1A22577  25.004   5.830   3.892  0.1026 -0.0365 -0.2010
    1DIPC   D2A22578  25.289   5.980   4.110 -0.0473 -0.0822  0.2023
    1DIPC   D3A22579  25.563   5.521   4.091 -0.0392  0.1323 -0.1482
    1DIPC   C4A22580  25.632   5.368   3.634 -0.0985  0.0902  0.0965
    1DIPC   C1B22581  25.121   5.372   3.767  0.1927  0.0800  0.0020
    1DIPC   D2B22582  25.046   5.370   4.247  0.0137  0.1359 -0.0755
    1DIPC   D3B22583  24.911   4.883   4.485 -0.2683 -0.0715 -0.0326
    1DIPC   C4B22584  24.610   4.650   4.585 -0.1802 -0.0560  0.0436
    1DIPC   NC322585  20.001  23.918   2.864  0.0800 -0.0766 -0.1640
    1DIPC   PO422586  20.315  23.728   2.569  0.2511  0.1022 -0.0781
    1DIPC   GL122587  20.465  23.686   3.057 -0.0291 -0.2193 -0.1658
    1DIPC   GL222588  20.742  23.533   3.160 -0.1525 -0.2996  0.0006
    1DIPC   C1A22589  20.188  23.535   3.409  0.2105  0.0500 -0.1105
    1DIPC   D2A22590  20.114  23.453   3.789 -0.1037  0.1856 -0.4317
    1DIPC   D3A22591  20.080  23.100   4.085 -0.2829 -0.1830 -0.1863
    1DIPC   C4A22592  19.696  22.918   4.266 -0.0707  0.0399  0.0202
    1DIPC   C1B22593  20.619  23.405   3.572  0.0150 -0.2004  0.1687
    1DIPC   D2B22594  20.407  23.010   3.720 -0.1334 -0.0863  0.1772
    1DIPC   D3B22595  20.422  22.656   4.001  0.1862 -0.2128  0.1874
    1DIPC   C4B22596  20.227  22.574   4.374  0.2646 -0.0141 -0.3589
    1DIPC   NC322597  12.129   4.934   3.228  0.1273 -0.0179  0.2344
    1DIPC   PO422598  11.760   4.744   3.095  0.1434  0.3045  0.1061
    1DIPC   GL122599  11.735   4.866   3.611 -0.0852 -0.2396  0.2892
    1DIPC   GL222600  11.518   5.065   3.677  0.1476 -0.1208 -0.0409
    1DIPC   C1A22601  11.727   4.961   4.116 -0.1420 -0.0433 -0.1141
    1DIPC   D2A22602  11.399   4.803   4.522  0.3806 -0.4334 -0.0908
    1DIPC   D3A22603  11.243   4.508   4.749  0.0633  0.0588 -0.0866
    1DIPC   C4A22604  11.288   4.400   5.117 -0.2268  0.0534  0.0927
    1DIPC   C1B22605  11.216   5.130   3.980  0.3782  0.1220 -0.1886
    1DIPC   D2B22606  10.974   5.118   4.458 -0.0102 -0.1280  0.0598
    1DIPC   D3B22607  11.079   5.400   4.699 -0.3664 -0.0089 -0.2093
    1DIPC   C4B22608  11.103   5.494   5.146  0.2099 -0.0449  0.1355
    1DIPC   NC322609   8.163   5.219   2.484 -0.1634 -0.0828 -0.1146
    1DIPC   PO422610   7.991   4.986   2.924  0.1680  0.1327  0.1883
    1DIPC   GL122611   7.889   4.930   3.349  0.1340  0.2956 -0.0178
    1DIPC   GL222612   7.813   4.597   3.435 -0.3658 -0.0726 -0.1832
    1DIPC   C1A22613   7.736   5.115   3.828 -0.0067 -0.0530  0.0272
    1DIPC   D2A22614   7.516   5.431   3.730  0.0093  0.2752 -0.2569
    1DIPC   D3A22615   7.620   5.894   3.883  0.0812 -0.2337 -0.0338
    1DIPC   C4A22616   8.012   6.024   4.035 -0.1759  0.1921  0.1735
    1DIPC   C1B22617   7.816   4.563   3.828 -0.1427 -0.0986 -0.3078
    1DIPC   D2B22618   7.794   4.783   4.183  0.1679 -0.0291 -0.2683
    1DIPC   D3B22619   7.531   4.808   4.497 -0.0669  0.1615 -0.0882
    1DIPC   C4B22620   7.433   5.051   4.784  0.0594  0.0031  0.1632
    1DIPC   NC322621   9.954   1.071   3.275  0.0912 -0.0374 -0.4486
    1DIPC   PO422622  10.127   0.975   3.614 -0.1502 -0.0081 -0.0514
    1DIPC   GL122623   9.862   1.198   3.746  0.1884  0.3415 -0.2384
    1DIPC   GL222624   9.497   1.099   3.577 -0.2026  0.0600  0.1845
    1DIPC   C1A22625   9.665   1.012   4.094 -0.0140  0.2553 -0.1820
    1DIPC   D2A22626   9.448   0.750   4.409  0.3549 -0.1230 -0.0161
    1DIPC   D3A22627   9.358   0.432   4.659  0.0265  0.1494 -0.3299
    1DIPC   C4A22628   9.023   0.455   4.928 -0.0209 -0.2995 -0.2738
    1DIPC   C1B22629   9.219   1.319   4.003 -0.1666 -0.1860  0.1546
    1DIPC   D2B22630   9.218   1.249   4.415 -0.1728  0.0666  0.0085
    1DIPC   D3B22631   8.919   1.427   4.629 -0.0732 -0.0296  0.0371
    1DIPC   C4B22632   8.788   1.600   5.027 -0.1820 -0.0935  0.0380
    1DIPC   NC322633  26.865  14.723   2.146 -0.1749 -0.3143  0.2953
    1DIPC   PO422634  26.812  15.137   1.910  0.3527  0.0758  0.2024
    1DIPC   GL122635  26.560  15.126   2.207  0.1264 -0.1784  0.4728
    1DIPC   GL222636  26.591  15.311   2.372  0.0911 -0.1248  0.1521
    1DIPC   C1A22637  26.448  14.813   2.571 -0.0878  0.1974 -0.2019
    1DIPC   D2A22638  26.620  14.559   2.862  0.0367 -0.0318 -0.0292
    1DIPC   D3A22639  26.925  14.785   2.699 -0.1079 -0.0734 -0.3875
    1DIPC   C4A22640  27.174  15.135   2.928  0.1514 -0.2653 -0.0267
    1DIPC   C1B22641  26.766  15.334   2.827  0.0987 -0.0532 -0.0459
    1DIPC   D2B22642  27.025  15.401   3.284 -0.0408 -0.1143  0.2346
    1DIPC   D3B22643  26.950  15.065   3.388  0.1786 -0.1042  0.1983
    1DIPC   C4B22644  27.033  14.716   3.188  0.0415  0.2180 -0.0821
    1DIPC   NC322645  25.813  19.932   1.479  0.3195  0.3605 -0.0251
    1DIPC   PO422646  25.880  19.557   1.758 -0.2575  0.0411 -0.3847
    1DIPC   GL122647  25.913  19.319   2.127 -0.2408  0.1631 -0.0479
    1DIPC   GL222648  25.810  19.012   2.175  0.0278  0.0261 -0.1703
    1DIPC   C1A22649  26.218  19.272   2.434 -0.0357 -0.0313 -0.1293
    1DIPC   D2A22650  26.365  19.057   2.762 -0.0548  0.0714 -0.1022
    1DIPC   D3A22651  26.261  19.293   3.089 -0.2456 -0.2742  0.1712
    1DIPC   C4A22652  26.432  19.619   3.389 -0.1717 -0.1767  0.0622
    1DIPC   C1B22653  25.557  19.241   2.502  0.1984 -0.0696 -0.0042
    1DIPC   D2B22654  25.421  19.610   2.790  0.1511 -0.1893  0.0317
    1DIPC   D3B22655  25.470  19.425   3.204  0.1770 -0.4156 -0.1092
    1DIPC   C4B22656  25.118  19.363   3.265  0.2356 -0.2068  0.2767
    1DIPC   NC322657   9.644  25.432   1.928 -0.1362 -0.0704 -0.1739
    1DIPC   PO422658   9.801  25.603   2.278 -0.2431  0.1887 -0.1456
    1DIPC   GL122659   9.582  25.686   2.658  0.1076 -0.0748 -0.0086
    1DIPC   GL222660   9.526  25.965   2.757  0.1008  0.2678 -0.1938
    1DIPC   C1A22661   9.412  25.413   3.016 -0.0148  0.0338 -0.0143
    1DIPC   D2A22662   9.028  25.351   2.981 -0.0131 -0.0107  0.1439
    1DIPC   D3A22663   9.239  24.917   3.124  0.1365 -0.1235 -0.1724
    1DIPC   C4A22664   9.134  24.627   3.363 -0.0726  0.1242  0.1266
    1DIPC   C1B22665   9.569  26.086   3.175  0.0988 -0.1133  0.0944
    1DIPC   D2B22666   9.807  26.257   3.510  0.0073 -0.1666  0.1888
    1DIPC   D3B22667   9.730  26.585   3.758 -0.1025 -0.0589 -0.0368
    1DIPC   C4B22668  10.063  26.699   3.785  0.4931 -0.2247 -0.1784
    1DIPC   NC322669   2.373  20.106   1.850 -0.0922 -0.1203 -0.0085
    1DIPC   PO422670   2.125  20.424   1.694 -0.0432 -0.3643  0.0229
    1DIPC   GL122671   2.430  20.557   2.000 -0.2233 -0.1104  0.0880
    1DIPC   GL222672   2.225  20.657   2.295  0.0149 -0.1559  0.0810
    1DIPC   C1A22673   2.782  20.485   2.267  0.1899  0.0879 -0.2379
    1DIPC   D2A22674   2.830  20.323   2.732  0.1781 -0.4263  0.1367
    1DIPC   D3A22675   3.150  19.920   2.830 -0.2538  0.0834 -0.1677
    1DIPC   C4A22676   3.490  20.101   3.074  0.1474 -0.0256  0.0594
    1DIPC   C1B22677   2.369  20.557   2.677  0.0623  0.3637  0.0877
    1DIPC   D2B22678   2.462  20.487   3.084 -0.0711 -0.0415 -0.2699
    1DIPC   D3B22679   2.379  20.967   3.202 -0.0290 -0.1281 -0.1605
    1DIPC   C4B22680   1.935  21.044   3.324  0.0734  0.0467 -0.0716
    1DIPC   NC322681  13.119  27.137   2.505  0.1226  0.1397  0.1850
    1DIPC   PO422682  13.174  27.247   2.977  0.2466 -0.1248  0.0402
    1DIPC   GL122683  12.984  27.097   3.385  0.1501 -0.1010 -0.0808
    1DIPC   GL222684  12.705  26.955   3.441  0.2127 -0.2936 -0.0573
    1DIPC   C1A22685  12.948  27.151   3.813 -0.1417  0.2052 -0.3218
    1DIPC   D2A22686  12.764  27.091   4.169 -0.2103 -0.0699  0.2647
    1DIPC   D3A22687  13.132  26.825   4.295 -0.0437 -0.2312  0.1482
    1DIPC   C4A22688  13.477  26.958   4.561  0.1397  0.1094  0.0530
    1DIPC   C1B22689  12.766  26.658   3.740 -0.0952 -0.0323 -0.1984
    1DIPC   D2B22690  12.748  26.402   4.075 -0.1120  0.0374  0.1677
    1DIPC   D3B22691  13.075  26.187   3.912 -0.0018  0.1282 -0.0104
    1DIPC   C4B22692  13.355  26.299   4.246 -0.1515  0.0873 -0.0398
    1DIPC   NC322693  28.345  20.716   2.312  0.0279  0.2561  0.0894
    1DIPC   PO422694  28.792  20.960   2.431  0.1641 -0.3480 -0.2617
    1DIPC   GL122695  28.600  20.871   2.816  0.1949 -0.2740 -0.0827
    1DIPC   GL222696  28.388  21.013   2.740 -0.4358  0.2623  0.3343
    1DIPC   C1A22697  28.717  20.711   3.192 -0.0608 -0.0393  0.1405
    1DIPC   D2A22698  29.030  20.357   3.361 -0.0365  0.1096 -0.1259
    1DIPC   D3A22699  29.069  20.412   3.806 -0.1219  0.0222  0.0159
    1DIPC   C4A22700  29.476  20.244   4.034  0.0195 -0.0687  0.0677
    1DIPC   C1B22701  28.040  20.989   3.048  0.1526  0.0980  0.0950
    1DIPC   D2B22702  27.561  20.871   3.086  0.1439  0.0162 -0.0531
    1DIPC   D3B22703  27.507  21.083   3.461 -0.3373  0.3723 -0.0342
    1DIPC   C4B22704  27.423  20.819   3.790  0.1162 -0.2656 -0.2106
    1DIPC   NC322705  29.229  13.740   1.495 -0.2415  0.2202  0.0573
    1DIPC   PO422706  28.762  13.535   1.501  0.0486 -0.0357 -0.2237
    1DIPC   GL122707  28.689  13.477   2.030 -0.4222  0.2290 -0.0003
    1DIPC   GL222708  28.523  13.258   2.127  0.3018 -0.0441 -0.1188
    1DIPC   C1A22709  28.974  13.597   2.393 -0.0569 -0.0503  0.1614
    1DIPC   D2A22710  29.204  13.735   2.688 -0.1577  0.2652  0.1274
    1DIPC   D3A22711  29.264  14.040   2.388 -0.0149 -0.2018 -0.1256
    1DIPC   C4A22712  29.698  14.050   2.573 -0.0803 -0.0397  0.2347
    1DIPC   C1B22713  28.980  13.108   2.337 -0.5195  0.0816  0.0637
    1DIPC   D2B22714  29.275  13.196   2.547  0.0360  0.1834 -0.2908
    1DIPC   D3B22715  29.431  12.804   2.416 -0.1974 -0.1117  0.2431
    1DIPC   C4B22716  29.579  12.438   2.685  0.3618 -0.0729 -0.0839
    1DIPC   NC322717  20.875   1.690   2.614 -0.1483  0.1735 -0.2453
    1DIPC   PO422718  21.341   1.492   2.747  0.3518 -0.0193  0.0497
    1DIPC   GL122719  21.293   1.378   3.147  0.0177  0.0051 -0.0366
    1DIPC   GL222720  20.932   1.455   3.330  0.1929 -0.0616  0.3173
    1DIPC   C1A22721  21.532   1.386   3.630  0.1904 -0.2198  0.1374
    1DIPC   D2A22722  21.328   1.503   3.872  0.1073 -0.1701 -0.2421
    1DIPC   D3A22723  21.453   1.349   4.270  0.0615  0.0351 -0.3165
    1DIPC   C4A22724  21.337   1.486   4.595  0.1066  0.3129  0.0394
    1DIPC   C1B22725  21.105   1.817   3.501 -0.0839 -0.0176 -0.0188
    1DIPC   D2B22726  21.076   1.957   3.903 -0.0965 -0.1075 -0.3180
    1DIPC   D3B22727  20.990   1.602   4.218  0.1320 -0.2040 -0.1110
    1DIPC   C4B22728  20.587   1.394   4.332 -0.2151  0.1387  0.1371
    1DIPC   NC322729   1.229   5.348   3.223  0.0197 -0.3637  0.1545
    1DIPC   PO422730   1.515   5.622   3.169  0.3177 -0.1502 -0.2758
    1DIPC   GL122731   1.542   5.555   3.638 -0.2593  0.1154  0.0389
    1DIPC   GL222732   1.946   5.620   3.871  0.4005  0.0658  0.1497
    1DIPC   C1A22733   1.247   5.528   3.919 -0.0423 -0.0009 -0.0435
    1DIPC   D2A22734   1.026   5.484   4.292 -0.1469  0.3427 -0.0888
    1DIPC   D3A22735   0.978   5.905   4.067  0.1528  0.3251 -0.1999
    1DIPC   C4A22736   1.119   5.908   3.567 -0.2373 -0.2733 -0.3160
    1DIPC   C1B22737   1.881   5.657   4.335  0.2208  0.1435  0.2907
    1DIPC   D2B22738   1.846   5.738   4.832  0.0683  0.1174 -0.0949
    1DIPC   D3B22739   1.540   6.038   4.684  0.3357  0.1450  0.0671
    1DIPC   C4B22740   1.426   5.811   4.340 -0.2006 -0.2317 -0.0017
    1DIPC   NC322741  13.740   3.088   3.812 -0.0627 -0.1282 -0.2010
    1DIPC   PO422742  13.481   3.377   3.626  0.0668  0.3815  0.1514
    1DIPC   GL122743  13.330   3.447   4.013  0.1319  0.0552 -0.0923
    1DIPC   GL222744  13.127   3.771   4.064 -0.0409  0.0533  0.0823
    1DIPC   C1A22745  13.404   3.415   4.434  0.0071  0.1276 -0.0944
    1DIPC   D2A22746  13.115   3.276   4.729 -0.1018  0.0195 -0.4344
    1DIPC   D3A22747  13.106   3.716   4.956 -0.0546  0.3020 -0.1483
    1DIPC   C4A22748  13.405   3.824   5.197  0.1228  0.1690  0.1326
    1DIPC   C1B22749  13.174   3.880   4.476 -0.0777  0.0393 -0.3163
    1DIPC   D2B22750  13.593   3.777   4.725 -0.1102  0.0808  0.1829
    1DIPC   D3B22751  13.857   3.652   4.478  0.1566 -0.0078 -0.2601
    1DIPC   C4B22752  14.101   3.848   4.691  0.0341 -0.0814  0.1928
    1DIPC   NC322753   7.700  20.774   2.290 -0.0830  0.1790 -0.4154
    1DIPC   PO422754   8.144  20.867   2.029  0.0317  0.0627  0.1251
    1DIPC   GL122755   8.104  21.171   2.375 -0.1973  0.0137 -0.1293
    1DIPC   GL222756   8.339  21.223   2.557  0.0844 -0.1778 -0.0909
    1DIPC   C1A22757   7.831  21.131   2.742  0.1054  0.2497 -0.1009
    1DIPC   D2A22758   7.756  21.325   3.113  0.2501 -0.0943  0.0041
    1DIPC   D3A22759   7.598  21.434   3.497 -0.1022 -0.1172 -0.2527
    1DIPC   C4A22760   7.393  21.233   3.852  0.2330 -0.0892  0.0428
    1DIPC   C1B22761   8.249  21.591   2.799  0.2539 -0.0817  0.1264
    1DIPC   D2B22762   7.986  21.810   2.878 -0.0752  0.2631  0.2874
    1DIPC   D3B22763   7.561  21.675   2.694  0.0329 -0.0469  0.0275
    1DIPC   C4B22764   7.162  21.831   2.874  0.0050 -0.1679  0.0090
    1DIPC   NC322765  14.467  22.284   2.341  0.2441 -0.0017  0.0016
    1DIPC   PO422766  14.645  22.661   2.531 -0.2036 -0.1269 -0.0748
    1DIPC   GL122767  14.699  22.776   2.923 -0.2546  0.0826 -0.0532
    1DIPC   GL222768  15.002  22.601   3.001  0.4581  0.1473  0.0400
    1DIPC   C1A22769  14.679  22.976   3.374  0.1470  0.0893  0.0491
    1DIPC   D2A22770  14.502  22.769   3.724 -0.0024 -0.0516 -0.0386
    1DIPC   D3A22771  14.741  22.495   4.244  0.1726 -0.0806  0.2090
    1DIPC   C4A22772  15.108  22.253   4.333  0.0628 -0.1774  0.0373
    1DIPC   C1B22773  14.971  22.556   3.395 -0.0909  0.1803 -0.2290
    1DIPC   D2B22774  15.032  22.721   3.851 -0.0723 -0.1534 -0.2977
    1DIPC   D3B22775  15.496  22.756   3.863  0.1107 -0.1383 -0.1800
    1DIPC   C4B22776  15.610  22.579   4.172 -0.1584 -0.2743  0.0651
    1DIPC   NC322777   6.065  10.725   3.135  0.0628  0.0783  0.1650
    1DIPC   PO422778   6.209  11.079   3.074 -0.0270  0.0424  0.1160
    1DIPC   GL122779   6.194  11.074   3.535  0.2452 -0.0047  0.1430
    1DIPC   GL222780   6.335  11.342   3.614 -0.4942 -0.2264  0.0687
    1DIPC   C1A22781   6.352  10.917   3.885  0.0430 -0.1499 -0.1397
    1DIPC   D2A22782   6.512  10.557   4.117 -0.2403 -0.3305  0.0782
    1DIPC   D3A22783   6.290  10.374   3.979 -0.0853  0.0321 -0.3985
    1DIPC   C4A22784   6.005  10.245   4.298  0.1503 -0.2207 -0.1463
    1DIPC   C1B22785   6.120  11.325   3.963  0.1537 -0.1267  0.1297
    1DIPC   D2B22786   5.836  11.157   4.146  0.2538  0.1679 -0.0391
    1DIPC   D3B22787   5.506  11.449   4.240 -0.1494 -0.0282  0.2130
    1DIPC   C4B22788   5.612  11.623   4.668  0.1143 -0.0042 -0.1762
    1DIPC   NC322789   6.551  14.388   2.092 -0.0930  0.2137  0.4085
    1DIPC   PO422790   6.563  14.747   2.534  0.0235  0.1876  0.1654
    1DIPC   GL122791   6.508  14.900   2.929 -0.1646 -0.0377 -0.0392
    1DIPC   GL222792   6.697  15.190   3.007  0.3514 -0.3717 -0.0621
    1DIPC   C1A22793   6.426  14.900   3.388 -0.0482  0.1564  0.1436
    1DIPC   D2A22794   6.610  14.869   3.732 -0.1940 -0.2228 -0.0999
    1DIPC   D3A22795   6.561  15.102   4.087 -0.2977  0.2177  0.1182
    1DIPC   C4A22796   6.629  15.025   4.511 -0.2481 -0.2067 -0.0693
    1DIPC   C1B22797   6.640  15.363   3.411  0.1477 -0.0531 -0.1801
    1DIPC   D2B22798   6.793  15.489   3.845  0.3744 -0.1053  0.0200
    1DIPC   D3B22799   7.080  15.255   4.088  0.0415  0.0275  0.1082
    1DIPC   C4B22800   7.396  15.362   4.156  0.0681  0.1457  0.1523
    1DIPC   NC322801  13.579   3.896   3.870  0.0011 -0.3635  0.2176
    1DIPC   PO422802  13.955   4.046   4.113  0.0933 -0.1767  0.2560
    1DIPC   GL122803  14.223   4.252   4.384 -0.3879  0.0148  0.0352
    1DIPC   GL222804  14.582   4.107   4.372 -0.2213  0.0646  0.1792
    1DIPC   C1A22805  14.388   4.397   4.751 -0.0764 -0.1613 -0.0738
    1DIPC   D2A22806  14.338   4.559   5.112 -0.3248  0.3685  0.1335
    1DIPC   D3A22807  14.482   4.246   5.385 -0.0376  0.2882  0.0145
    1DIPC   C4A22808  14.963   4.296   5.471  0.0882  0.4494 -0.1556
    1DIPC   C1B22809  14.843   4.439   4.560 -0.0672 -0.1918  0.3239
    1DIPC   D2B22810  14.848   4.488   4.935 -0.0394  0.1926 -0.2835
    1DIPC   D3B22811  14.757   4.931   4.800  0.1785  0.0802 -0.0613
    1DIPC   C4B22812  14.914   5.353   4.955  0.2609 -0.1125 -0.1756
    1DIPC   NC322813  18.335   5.358   3.957 -0.1295  0.2176  0.1743
    1DIPC   PO422814  17.905   5.383   3.809  0.3246  0.2538  0.1798
    1DIPC   GL122815  17.853   5.633   4.085 -0.1750  0.2385  0.2349
    1DIPC   GL222816  18.007   5.550   4.383  0.0499  0.0380 -0.0381
    1DIPC   C1A22817  17.909   6.018   4.326 -0.0523 -0.2160 -0.2314
    1DIPC   D2A22818  17.646   6.200   4.543 -0.1633  0.0721  0.0502
    1DIPC   D3A22819  17.599   6.430   4.788 -0.0311 -0.1007 -0.3429
    1DIPC   C4A22820  17.371   6.731   5.041  0.3358  0.1530 -0.0823
    1DIPC   C1B22821  17.879   5.319   4.659 -0.0482  0.1497  0.2769
    1DIPC   D2B22822  17.643   5.200   5.002 -0.1218 -0.0154  0.3528
    1DIPC   D3B22823  17.927   5.380   5.336 -0.2760  0.1428 -0.2583
    1DIPC   C4B22824  18.020   5.828   5.537  0.2330 -0.2253  0.0873
    1DIPC   NC322825   0.231  17.715   1.552 -0.0026  0.0226  0.0962
    1DIPC   PO422826   0.115  17.298   1.696 -0.0181 -0.0845  0.1325
    1DIPC   GL122827   0.279  17.492   2.083 -0.2267  0.1279  0.1650
    1DIPC   GL222828   0.019  17.666   2.141  0.1005  0.2535  0.1606
    1DIPC   C1A22829   0.602  17.449   2.467 -0.1536 -0.1281  0.0149
    1DIPC   D2A22830   0.911  17.681   2.702  0.0937  0.3024  0.1373
    1DIPC   D3A22831   1.140  17.380   2.384  0.1524 -0.1189 -0.1775
    1DIPC   C4A22832   1.079  16.918   2.359  0.1607 -0.0376  0.1067
    1DIPC   C1B22833   0.011  17.496   2.510  0.1405  0.0639  0.1944
    1DIPC   D2B22834   0.256  17.440   2.820 -0.0380 -0.0419 -0.1895
    1DIPC   D3B22835   0.066  17.562   3.137 -0.2372 -0.2717 -0.0886
    1DIPC   C4B22836   0.028  17.238   3.446 -0.3858 -0.2448  0.2750
    1DIPC   NC322837   5.453  26.434   2.204 -0.1330  0.0548  0.1602
    1DIPC   PO422838   5.404  25.952   2.071 -0.1103 -0.1985  0.1926
    1DIPC   GL122839   5.466  25.785   2.448 -0.0292  0.0098  0.1924
    1DIPC   GL222840   5.518  26.009   2.604 -0.2386  0.2391 -0.0153
    1DIPC   C1A22841   5.481  25.562   2.817 -0.1338  0.1916  0.1169
    1DIPC   D2A22842   5.264  25.476   3.154  0.3025 -0.1864 -0.0509
    1DIPC   D3A22843   5.303  25.508   3.579 -0.1974  0.0372 -0.2096
    1DIPC   C4A22844   5.162  25.419   4.014 -0.3469  0.0961 -0.1586
    1DIPC   C1B22845   5.116  26.014   2.764 -0.2099  0.4045  0.2373
    1DIPC   D2B22846   4.936  25.882   3.185  0.2348  0.1402  0.0875
    1DIPC   D3B22847   5.341  25.959   3.355  0.2330  0.3090 -0.0853
    1DIPC   C4B22848   5.681  25.969   3.064  0.0102 -0.1522 -0.0880
    1DIPC   NC322849  28.095  21.574   1.884 -0.1895 -0.0662 -0.1224
    1DIPC   PO422850  28.278  21.728   2.271  0.0833  0.3611  0.1142
    1DIPC   GL122851  28.410  21.839   2.723  0.3931  0.0053 -0.1404
    1DIPC   GL222852  28.534  21.473   2.921 -0.0574  0.1080 -0.1812
    1DIPC   C1A22853  28.598  21.977   3.057  0.1867  0.0992 -0.2059
    1DIPC   D2A22854  28.581  22.286   3.346  0.1114 -0.0403  0.0952
    1DIPC   D3A22855  28.849  22.561   3.159  0.3152 -0.0054  0.1751
    1DIPC   C4A22856  28.847  22.385   2.711  0.0832 -0.0451 -0.1492
    1DIPC   C1B22857  28.571  21.204   3.221  0.0620 -0.0972  0.0558
    1DIPC   D2B22858  28.900  21.162   3.592  0.2218  0.0695  0.1827
    1DIPC   D3B22859  28.689  20.757   3.730 -0.2172 -0.0036 -0.0308
    1DIPC   C4B22860  28.321  20.717   3.928  0.1020  0.1702 -0.3782
    1DIPC   NC322861   7.749  22.564   1.704  0.0726  0.0414 -0.0791
    1DIPC   PO422862   7.621  22.326   2.059 -0.5467  0.2837 -0.0366
    1DIPC   GL122863   7.627  22.417   2.546  0.0341  0.2374  0.0052
    1DIPC   GL222864   7.734  22.155   2.615  0.1407  0.1272  0.1494
    1DIPC   C1A22865   7.256  22.352   2.837  0.2120 -0.2599 -0.0069
    1DIPC   D2A22866   7.075  22.195   3.226 -0.1660  0.0852  0.1016
    1DIPC   D3A22867   7.293  21.965   3.601  0.1810 -0.4145 -0.0302
    1DIPC   C4A22868   7.075  22.165   4.030 -0.1003 -0.0432 -0.0927
    1DIPC   C1B22869   7.733  22.290   2.996  0.0228  0.5223 -0.1716
    1DIPC   D2B22870   7.556  22.455   3.330 -0.0029 -0.0530 -0.0549
    1DIPC   D3B22871   7.900  22.529   3.735 -0.0981  0.0657 -0.0359
    1DIPC   C4B22872   7.988  22.944   3.879 -0.2109  0.1000  0.1617
    1DIPC   NC322873   2.692   0.223   3.144 -0.4046 -0.0943  0.0185
    1DIPC   PO422874   2.807   0.500   3.365  0.0719  0.4527  0.1577
    1DIPC   GL122875   2.816   0.734   3.627  0.0093  0.0908  0.0876
    1DIPC   GL222876   2.623   0.585   3.879  0.0100 -0.2687 -0.0546
    1DIPC   C1A22877   2.947   1.098   3.998 -0.0780 -0.2252 -0.0123
    1DIPC   D2A22878   3.074   1.109   4.436  0.2483 -0.1701 -0.1944
    1DIPC   D3A22879   3.219   1.360   4.722 -0.1871 -0.0564  0.1299
    1DIPC   C4A22880   3.323   1.758   4.786 -0.3220  0.0568  0.1133
    1DIPC   C1B22881   2.657   0.329   4.369  0.0537 -0.0229  0.0890
    1DIPC   D2B22882   2.553   0.369   4.859  0.0897  0.0104  0.3253
    1DIPC   D3B22883   2.779   0.707   5.180 -0.0810  0.1078  0.1628
    1DIPC   C4B22884   2.775   1.174   5.358 -0.0758  0.0909  0.1678
    1DIPC   NC322885  16.298   3.640   3.358  0.4023 -0.0891  0.4020
    1DIPC   PO422886  16.678   3.537   3.518  0.2435 -0.0026 -0.0184
    1DIPC   GL122887  16.634   3.639   3.928 -0.0244 -0.3515  0.2346
    1DIPC   GL222888  16.748   3.426   4.202  0.0414 -0.0334  0.1612
    1DIPC   C1A22889  16.510   4.037   4.066 -0.0920  0.0681  0.0785
    1DIPC   D2A22890  16.187   4.202   4.292 -0.1524 -0.1928  0.3776
    1DIPC   D3A22891  16.134   4.476   4.630 -0.1003 -0.2473 -0.2106
    1DIPC   C4A22892  16.422   4.737   4.911 -0.0156 -0.0282  0.0025
    1DIPC   C1B22893  16.850   3.525   4.683  0.0287 -0.1553 -0.2187
    1DIPC   D2B22894  16.899   3.499   5.144  0.2948  0.0123 -0.1723
    1DIPC   D3B22895  17.139   3.794   5.293 -0.0220  0.1259 -0.1904
    1DIPC   C4B22896  16.821   4.149   5.520  0.0713 -0.1986 -0.0935
    1DIPC   NC322897   8.395  24.035   2.385 -0.2616 -0.1239  0.2436
    1DIPC   PO422898   7.997  24.208   2.452 -0.0680 -0.2211  0.3780
    1DIPC   GL122899   8.216  23.985   2.865 -0.1315 -0.0459  0.1247
    1DIPC   GL222900   8.056  23.845   3.006 -0.0751 -0.0783  0.0048
    1DIPC   C1A22901   8.430  24.051   3.260 -0.0883 -0.4296 -0.0366
    1DIPC   D2A22902   8.574  24.282   3.609 -0.0958 -0.1506  0.2046
    1DIPC   D3A22903   8.603  24.303   4.054 -0.0342  0.1105  0.0703
    1DIPC   C4A22904   9.006  24.147   4.273  0.2255  0.0898 -0.2833
    1DIPC   C1B22905   7.965  23.554   3.267  0.2283  0.0246 -0.0855
    1DIPC   D2B22906   7.869  23.711   3.641  0.0866  0.1297 -0.0464
    1DIPC   D3B22907   7.523  23.852   3.959 -0.0780  0.0711 -0.0022
    1DIPC   C4B22908   7.469  24.013   4.489 -0.2098 -0.1460 -0.3556
    1DIPC   NC322909   6.467   1.696   2.981 -0.3662 -0.1342 -0.0012
    1DIPC   PO422910   6.556   2.155   3.145 -0.2364 -0.1761 -0.0961
    1DIPC   GL122911   6.406   2.459   3.467  0.3010  0.3679 -0.3173
    1DIPC   GL222912   6.374   2.285   3.844 -0.2297 -0.1383 -0.1911
    1DIPC   C1A22913   6.317   2.762   3.836  0.0647 -0.1575 -0.0457
    1DIPC   D2A22914   6.560   3.039   4.110  0.0154 -0.0035 -0.0021
    1DIPC   D3A22915   6.881   2.904   4.200  0.0620 -0.1424  0.1713
    1DIPC   C4A22916   7.021   2.423   4.264 -0.0206  0.2491 -0.1987
    1DIPC   C1B22917   6.210   2.227   4.280  0.2450 -0.1812 -0.0854
    1DIPC   D2B22918   6.173   2.452   4.774  0.0625 -0.1355  0.0446
    1DIPC   D3B22919   6.329   2.873   4.932 -0.1884 -0.0664  0.2200
    1DIPC   C4B22920   6.607   3.050   5.210 -0.4002 -0.0462  0.1548
    1DIPC   NC322921  22.567  22.540   1.842  0.2797  0.1829 -0.0899
    1DIPC   PO422922  22.771  22.155   2.186  0.1077 -0.2586  0.2335
    1DIPC   GL122923  22.688  21.786   2.470  0.1076 -0.0897  0.0120
    1DIPC   GL222924  22.899  21.514   2.669 -0.4093  0.0642 -0.4400
    1DIPC   C1A22925  22.421  21.408   2.572 -0.4159 -0.1339 -0.1299
    1DIPC   D2A22926  22.311  20.962   2.800  0.1204  0.0834 -0.0617
    1DIPC   D3A22927  21.986  20.827   2.890  0.1059  0.3223  0.0202
    1DIPC   C4A22928  21.751  20.720   3.250 -0.2364  0.2536  0.0841
    1DIPC   C1B22929  23.015  21.683   3.145 -0.0411  0.0017  0.0099
    1DIPC   D2B22930  23.078  21.906   3.545  0.0282  0.0863  0.0789
    1DIPC   D3B22931  22.766  21.788   3.736  0.1599 -0.0902  0.0255
    1DIPC   C4B22932  22.476  22.110   3.843  0.1248  0.1441  0.1691
    1DIPC   NC322933  29.047  23.235   1.657 -0.1043  0.1363 -0.0049
    1DIPC   PO422934  28.922  23.049   2.127 -0.0229  0.1837  0.1717
    1DIPC   GL122935  29.023  22.934   2.547 -0.0628  0.0846  0.0628
    1DIPC   GL222936  29.208  23.200   2.596  0.0453  0.2233  0.1436
    1DIPC   C1A22937  29.174  22.715   2.888 -0.1851  0.1324 -0.0565
    1DIPC   D2A22938  29.462  22.431   3.202  0.2519 -0.2959  0.1662
    1DIPC   D3A22939  29.739  22.415   3.599  0.1347  0.2347 -0.1178
    1DIPC   C4A22940  29.942  22.735   3.864  0.1764  0.0734 -0.3065
    1DIPC   C1B22941  29.218  23.157   2.978 -0.2789 -0.0241  0.1588
    1DIPC   D2B22942  29.425  22.969   3.270 -0.1253 -0.0230 -0.1134
    1DIPC   D3B22943  29.312  22.770   3.652 -0.0843 -0.2212  0.1334
    1DIPC   C4B22944  29.392  22.988   3.990 -0.1013 -0.0141  0.2171
    1DIPC   NC322945   4.903  13.814   2.435 -0.2993  0.3221 -0.2222
    1DIPC   PO422946   4.942  14.119   2.711  0.1527 -0.1241  0.1725
    1DIPC   GL122947   4.930  14.097   3.125 -0.1884  0.0128  0.0801
    1DIPC   GL222948   5.287  14.206   3.237 -0.0189 -0.2211  0.2223
    1DIPC   C1A22949   4.872  14.158   3.566  0.0292  0.1835  0.3386
    1DIPC   D2A22950   5.195  14.087   3.853 -0.0147  0.2600 -0.0212
    1DIPC   D3A22951   5.488  13.915   4.096 -0.0674  0.0953  0.2545
    1DIPC   C4A22952   5.625  13.997   4.549  0.1305 -0.1233  0.0056
    1DIPC   C1B22953   5.521  14.555   3.361  0.1970  0.3549  0.2814
    1DIPC   D2B22954   5.352  14.946   3.378  0.0036 -0.5541  0.1161
    1DIPC   D3B22955   5.162  15.014   3.729 -0.2501 -0.1304 -0.1734
    1DIPC   C4B22956   5.310  14.893   4.130 -0.2510 -0.1973  0.0871
    1DIPC   NC322957  17.875   9.586   2.551 -0.0372 -0.0525 -0.0786
    1DIPC   PO422958  17.554   9.934   2.530  0.3655 -0.0892 -0.2502
    1DIPC   GL122959  17.865  10.120   2.873 -0.0779  0.1641  0.0907
    1DIPC   GL222960  17.821  10.449   3.015 -0.2905 -0.0061  0.0130
    1DIPC   C1A22961  18.157   9.894   3.154 -0.1093  0.0302 -0.0635
    1DIPC   D2A22962  18.211   9.555   3.453 -0.0318 -0.0431 -0.0624
    1DIPC   D3A22963  18.480   9.943   3.514 -0.0885 -0.1354  0.2082
    1DIPC   C4A22964  18.406  10.053   3.865  0.0837  0.0745  0.0061
    1DIPC   C1B22965  17.764  10.641   3.533  0.0504  0.0904  0.2353
    1DIPC   D2B22966  17.790  10.701   3.922  0.1149  0.2349 -0.1316
    1DIPC   D3B22967  17.660  11.147   3.894  0.0047  0.3146  0.1735
    1DIPC   C4B22968  17.661  11.425   4.236 -0.1032  0.0757  0.0987
    1DIPC   NC322969   2.922  28.219   3.348 -0.2605  0.1087 -0.1237
    1DIPC   PO422970   3.153  27.813   3.333  0.0100  0.5162  0.0415
    1DIPC   GL122971   3.227  27.539   3.618  0.3502  0.0719 -0.1678
    1DIPC   GL222972   2.990  27.728   3.844  0.3828  0.1234  0.0686
    1DIPC   C1A22973   3.295  27.129   3.703  0.0590  0.0686 -0.0557
    1DIPC   D2A22974   3.491  26.696   3.846  0.0527 -0.2524  0.1978
    1DIPC   D3A22975   3.757  26.936   4.038  0.0307  0.0345 -0.1076
    1DIPC   C4A22976   3.877  27.339   3.788  0.0640  0.0869 -0.2452
    1DIPC   C1B22977   2.592  27.728   4.170 -0.1449 -0.1838 -0.0206
    1DIPC   D2B22978   2.291  27.468   4.449 -0.0035  0.0674 -0.2256
    1DIPC   D3B22979   2.755  27.313   4.453  0.1084  0.1294 -0.3058
    1DIPC   C4B22980   2.908  27.185   4.861 -0.1264  0.1452 -0.1776
    1DIPC   NC322981  18.823  25.953   2.730 -0.0494 -0.0292 -0.0983
    1DIPC   PO422982  18.868  26.303   3.142  0.1994 -0.0860 -0.0022
    1DIPC   GL122983  18.763  26.225   3.510 -0.1052 -0.1923 -0.3337
    1DIPC   GL222984  18.854  26.586   3.687  0.2949 -0.2929  0.1994
    1DIPC   C1A22985  18.628  26.186   3.954 -0.2500 -0.0934  0.1182
    1DIPC   D2A22986  18.444  26.315   4.372 -0.2950 -0.1957  0.2831
    1DIPC   D3A22987  18.371  26.203   4.742 -0.3516  0.0440  0.0764
    1DIPC   C4A22988  18.420  26.039   5.136  0.0717  0.0573  0.2450
    1DIPC   C1B22989  18.485  26.870   3.840 -0.4932 -0.0974 -0.4661
    1DIPC   D2B22990  18.375  26.877   4.279 -0.0728 -0.0174  0.0262
    1DIPC   D3B22991  18.607  27.270   4.284  0.0683 -0.0837 -0.2818
    1DIPC   C4B22992  18.726  27.470   3.885 -0.2204  0.2534 -0.1589
    1DIPC   NC322993  15.579   6.357   3.501 -0.2301  0.0410  0.1482
    1DIPC   PO422994  15.145   6.561   3.468 -0.1292  0.0370 -0.0523
    1DIPC   GL122995  15.401   6.562   3.877  0.0504  0.0583  0.2263
    1DIPC   GL222996  15.401   6.243   4.013 -0.4287  0.1511 -0.0020
    1DIPC   C1A22997  15.524   6.585   4.277  0.0511  0.3425  0.4995
    1DIPC   D2A22998  15.707   6.538   4.671  0.4549  0.0426  0.1136
    1DIPC   D3A22999  15.694   6.690   5.035  0.1754 -0.1996  0.1841
    1DIPC   C4A23000  15.470   6.881   5.278  0.1712  0.1404  0.2128
    1DIPC   C1B23001  15.377   6.166   4.508 -0.0861  0.2856  0.0478
    1DIPC   D2B23002  15.421   6.287   4.967 -0.0184  0.0813  0.3497
    1DIPC   D3B23003  15.472   6.338   5.444  0.2347  0.1811 -0.0929
    1DIPC   C4B23004  15.641   6.161   5.763  0.0230  0.2665 -0.3565
    1DIPC   NC323005   3.606  10.804   3.217  0.0027 -0.3708  0.0551
    1DIPC   PO423006   3.914  10.971   2.899  0.0992 -0.0026  0.0367
    1DIPC   GL123007   4.033  10.900   3.414  0.1930 -0.3286  0.2261
    1DIPC   GL223008   3.897  11.147   3.486 -0.0809  0.1943  0.2364
    1DIPC   C1A23009   4.244  10.980   3.842 -0.0368 -0.1905  0.3693
    1DIPC   D2A23010   4.591  10.923   4.148  0.0900 -0.0485 -0.2239
    1DIPC   D3A23011   4.313  11.281   4.345  0.0566 -0.1077  0.0748
    1DIPC   C4A23012   4.032  11.203   4.702 -0.1458  0.0033  0.0629
    1DIPC   C1B23013   3.725  11.049   3.871 -0.2578  0.2570 -0.1952
    1DIPC   D2B23014   3.854  11.013   4.275 -0.1879 -0.0422 -0.1288
    1DIPC   D3B23015   4.166  10.670   4.210 -0.1919  0.1226  0.0551
    1DIPC   C4B23016   3.935  10.331   4.162 -0.2160 -0.4230  0.2272
    1DIPC   NC323017  28.066   3.413   2.357  0.0951  0.2014  0.0300
    1DIPC   PO423018  28.381   3.542   2.395  0.0310 -0.0306 -0.3312
    1DIPC   GL123019  28.551   3.404   2.783  0.0886 -0.1007  0.1537
    1DIPC   GL223020  28.586   3.716   2.937 -0.1535 -0.1803  0.0415
    1DIPC   C1A23021  28.360   3.322   3.224  0.0416  0.1679 -0.3079
    1DIPC   D2A23022  28.186   3.402   3.623  0.3394 -0.2249  0.0497
    1DIPC   D3A23023  27.887   3.700   3.762 -0.1627 -0.1363 -0.4338
    1DIPC   C4A23024  27.856   4.024   4.115 -0.1072  0.0615  0.1947
    1DIPC   C1B23025  28.340   3.803   3.374  0.1680  0.0349  0.2786
    1DIPC   D2B23026  28.392   4.076   3.763  0.0904 -0.0489 -0.1849
    1DIPC   D3B23027  28.254   4.331   4.113  0.0707 -0.1665  0.0171
    1DIPC   C4B23028  28.363   4.124   4.537 -0.3359 -0.5271 -0.1004
    1DIPC   NC323029  11.526   3.087   3.509  0.0190 -0.1438  0.0428
    1DIPC   PO423030  11.726   2.713   3.700 -0.1990  0.2966 -0.1937
    1DIPC   GL123031  11.550   2.647   4.174 -0.1465  0.0769  0.0002
    1DIPC   GL223032  11.573   2.777   4.476  0.1665  0.0125 -0.0309
    1DIPC   C1A23033  11.408   2.315   4.397 -0.0261  0.1339 -0.3680
    1DIPC   D2A23034  11.103   1.944   4.466 -0.0172 -0.0109  0.0792
    1DIPC   D3A23035  11.413   1.810   4.709  0.3036  0.3171 -0.1561
    1DIPC   C4A23036  11.768   2.010   4.781 -0.3646 -0.0630  0.4539
    1DIPC   C1B23037  11.571   2.980   4.879  0.2750 -0.3245 -0.0397
    1DIPC   D2B23038  11.646   3.099   5.256 -0.0379 -0.2102  0.1211
    1DIPC   D3B23039  11.396   3.433   5.206  0.1825 -0.2017  0.3231
    1DIPC   C4B23040  10.997   3.505   5.487  0.0857  0.0245 -0.1052
    1DIPC   NC323041   4.488   8.274   3.228 -0.4664  0.0214 -0.1555
    1DIPC   PO423042   4.049   8.084   3.153  0.1847 -0.1843  0.0293
    1DIPC   GL123043   3.822   7.792   3.387  0.0409  0.1254  0.1700
    1DIPC   GL223044   3.419   7.906   3.350  0.0565 -0.1721  0.0753
    1DIPC   C1A23045   3.606   7.689   3.841 -0.0056 -0.2136 -0.1874
    1DIPC   D2A23046   3.442   7.989   4.286  0.0837 -0.2741  0.1162
    1DIPC   D3A23047   3.581   8.259   4.534  0.2592 -0.2193  0.0678
    1DIPC   C4A23048   3.941   8.386   4.788  0.1390  0.0447 -0.1525
    1DIPC   C1B23049   3.530   8.224   3.665  0.2771 -0.2233  0.2847
    1DIPC   D2B23050   3.488   8.474   4.106 -0.0323 -0.1347 -0.2796
    1DIPC   D3B23051   3.589   8.912   3.982  0.1019 -0.3847  0.3877
    1DIPC   C4B23052   3.301   9.293   3.805  0.0255  0.3305 -0.0565
    1DIPC   NC323053   8.889  29.533   3.353  0.0369  0.1300 -0.2458
    1DIPC   PO423054   9.146  29.162   3.578 -0.2207 -0.1224 -0.0715
    1DIPC   GL123055   8.775  28.819   3.740 -0.4172 -0.0841 -0.1289
    1DIPC   GL223056   8.618  28.969   3.528  0.3501 -0.5249 -0.0447
    1DIPC   C1A23057   8.752  28.839   4.116 -0.0095  0.0521  0.0527
    1DIPC   D2A23058   8.608  28.875   4.515  0.3407  0.0882 -0.0685
    1DIPC   D3A23059   8.648  28.489   4.677  0.0243 -0.0798 -0.0225
    1DIPC   C4A23060   8.318  28.488   4.935 -0.1663 -0.2037 -0.1582
    1DIPC   C1B23061   8.476  29.223   3.932 -0.0998 -0.2452 -0.2661
    1DIPC   D2B23062   8.403  29.320   4.409 -0.0652 -0.1089 -0.3352
    1DIPC   D3B23063   8.419  29.250   4.869 -0.2326  0.0432  0.3303
    1DIPC   C4B23064   8.329  29.458   5.263 -0.0679 -0.1097  0.2206
    1DIPC   NC323065  23.461  22.083   1.893  0.0770  0.0172  0.1598
    1DIPC   PO423066  23.358  22.375   2.252  0.1804  0.0218  0.0974
    1DIPC   GL123067  22.989  22.333   2.565  0.1028 -0.0704 -0.0219
    1DIPC   GL223068  23.095  22.106   2.853 -0.2702  0.1300  0.2478
    1DIPC   C1A23069  22.674  22.308   2.823  0.0227  0.4328  0.2174
    1DIPC   D2A23070  22.290  22.086   2.889  0.1358 -0.1624 -0.0057
    1DIPC   D3A23071  21.899  21.982   3.163  0.2985  0.0400 -0.1330
    1DIPC   C4A23072  22.009  22.220   3.559 -0.0387  0.0622  0.2629
    1DIPC   C1B23073  23.432  22.073   3.139 -0.0093 -0.0026 -0.2097
    1DIPC   D2B23074  23.556  22.114   3.604 -0.1845 -0.1132  0.0947
    1DIPC   D3B23075  23.438  22.013   3.954 -0.4752 -0.3948 -0.1082
    1DIPC   C4B23076  23.133  22.262   4.087  0.2683  0.2750 -0.0264
    1DIPC   NC323077   7.272  11.760   3.520 -0.0669 -0.4838  0.1731
    1DIPC   PO423078   7.283  11.335   3.724 -0.1104  0.4170  0.0167
    1DIPC   GL123079   7.290  11.559   4.126  0.1643  0.1061  0.1190
    1DIPC   GL223080   7.478  11.585   4.352 -0.2958 -0.2187  0.0030
    1DIPC   C1A23081   6.961  11.688   4.353  0.0030 -0.0638  0.1670
    1DIPC   D2A23082   6.731  11.844   4.707  0.2404  0.2912  0.0850
    1DIPC   D3A23083   6.838  11.635   5.050  0.0333 -0.1694  0.0794
    1DIPC   C4A23084   7.204  11.897   5.243 -0.1756  0.0299  0.0920
    1DIPC   C1B23085   7.434  12.027   4.357 -0.2714  0.1548  0.0854
    1DIPC   D2B23086   7.544  12.359   4.034  0.0897  0.3420 -0.3847
    1DIPC   D3B23087   7.905  12.198   4.118 -0.0048  0.1334 -0.0746
    1DIPC   C4B23088   7.899  11.868   4.412 -0.0259 -0.2084 -0.1162
    1DIPC   NC323089  30.040   5.266   2.697  0.1175 -0.1661  0.2263
    1DIPC   PO423090  30.425   5.252   2.990 -0.1483  0.1083  0.0106
    1DIPC   GL123091  30.118   5.300   3.305 -0.0497  0.0340  0.3431
    1DIPC   GL223092  30.075   5.156   3.561 -0.1076 -0.2669 -0.0207
    1DIPC   C1A23093  30.199   5.675   3.671 -0.0862  0.0215 -0.3665
    1DIPC   D2A23094  30.021   5.846   4.023  0.1803 -0.2420  0.2717
    1DIPC   D3A23095  30.547   5.899   4.118  0.1019 -0.0704 -0.1130
    1DIPC   C4A23096  30.764   6.269   3.937  0.0712  0.1576 -0.0044
    1DIPC   C1B23097  29.782   5.422   3.899  0.0698  0.2332  0.0584
    1DIPC   D2B23098  29.773   5.368   4.348  0.0427 -0.1854 -0.0410
    1DIPC   D3B23099  29.529   5.684   4.340  0.1532  0.2296 -0.1470
    1DIPC   C4B23100  29.324   5.999   4.503  0.2230 -0.1497 -0.2858
    1DIPC   NC323101  26.370  13.026   1.350 -0.0032 -0.0705 -0.1485
    1DIPC   PO423102  26.623  13.284   1.743 -0.4393 -0.4252  0.1084
    1DIPC   GL123103  26.775  13.368   2.157  0.2310  0.0937  0.0170
    1DIPC   GL223104  26.607  13.723   2.218 -0.0878 -0.1056 -0.0749
    1DIPC   C1A23105  26.955  13.454   2.556 -0.0342  0.0044 -0.2543
    1DIPC   D2A23106  27.256  13.358   2.982 -0.0191 -0.1442 -0.1759
    1DIPC   D3A23107  27.050  12.940   2.853  0.0153  0.0175 -0.2734
    1DIPC   C4A23108  27.061  12.750   2.470  0.0494  0.1394 -0.2793
    1DIPC   C1B23109  26.839  13.954   2.639  0.1443  0.2015 -0.3026
    1DIPC   D2B23110  26.957  13.758   2.988 -0.2911 -0.3713  0.0484
    1DIPC   D3B23111  27.316  13.884   3.206  0.2612 -0.1185 -0.0058
    1DIPC   C4B23112  27.549  13.535   3.460  0.1685  0.1458  0.1190
    1DIPC   NC323113  25.928  26.211   2.485  0.1243 -0.2114 -0.0430
    1DIPC   PO423114  25.825  25.792   2.557 -0.2132 -0.1039 -0.0135
    1DIPC   GL123115  25.874  25.883   3.009 -0.1112  0.2369 -0.2157
    1DIPC   GL223116  25.646  25.877   3.318 -0.0159  0.0035 -0.1424
    1DIPC   C1A23117  26.081  26.156   3.393 -0.0578  0.0523 -0.0786
    1DIPC   D2A23118  26.444  26.347   3.520 -0.0187 -0.2440 -0.3621
    1DIPC   D3A23119  26.764  26.131   3.752  0.0557 -0.3890  0.0272
    1DIPC   C4A23120  26.923  26.267   4.169 -0.0163  0.1904 -0.1214
    1DIPC   C1B23121  26.039  25.678   3.433 -0.0059  0.1389 -0.3152
    1DIPC   D2B23122  26.265  25.347   3.317  0.0735 -0.0479  0.1295
    1DIPC   D3B23123  26.383  25.531   3.821  0.1118 -0.0520 -0.1937
    1DIPC   C4B23124  26.286  25.968   3.819 -0.0351 -0.2037  0.0976
    1DIPC   NC323125  20.106   1.214   2.340  0.2086  0.3373  0.0239
    1DIPC   PO423126  19.923   1.011   2.718  0.3034  0.1081 -0.2253
    1DIPC   GL123127  20.152   1.042   3.076  0.2047  0.1434  0.0965
    1DIPC   GL223128  19.963   1.126   3.438  0.0672  0.3542  0.3003
    1DIPC   C1A23129  20.489   1.173   3.352 -0.0465  0.3101  0.1484
    1DIPC   D2A23130  20.960   1.141   3.682  0.0128 -0.3167  0.1527
    1DIPC   D3A23131  21.029   1.075   4.148  0.0445 -0.0153 -0.0247
    1DIPC   C4A23132  20.910   1.135   4.572  0.1387 -0.2013  0.1688
    1DIPC   C1B23133  20.261   0.970   3.701 -0.0607 -0.3306 -0.0814
    1DIPC   D2B23134  20.518   0.924   4.114 -0.0008 -0.3385 -0.1214
    1DIPC   D3B23135  20.435   0.896   4.584 -0.1294  0.1608  0.1183
    1DIPC   C4B23136  20.728   0.701   4.849 -0.0281 -0.2355  0.1274
    1DIPC   NC323137  18.200   6.766   3.503  0.2203  0.1516 -0.0346
    1DIPC   PO423138  18.229   6.294   3.511 -0.1712 -0.0828  0.1896
    1DIPC   GL123139  18.307   6.449   3.893 -0.0344  0.1194 -0.2233
    1DIPC   GL223140  18.247   6.753   4.092  0.1745 -0.2429 -0.1626
    1DIPC   C1A23141  18.397   6.271   4.285 -0.0025 -0.1185 -0.0406
    1DIPC   D2A23142  18.747   6.052   4.417  0.0994  0.1607 -0.0682
    1DIPC   D3A23143  18.405   6.026   4.702 -0.0930 -0.0773  0.0044
    1DIPC   C4A23144  18.091   5.760   5.019 -0.2074  0.1012  0.0751
    1DIPC   C1B23145  18.087   7.279   4.110  0.0081  0.0728 -0.0512
    1DIPC   D2B23146  18.301   7.480   4.392  0.0274 -0.2131 -0.2544
    1DIPC   D3B23147  18.297   7.030   4.527 -0.0325 -0.1131 -0.4823
    1DIPC   C4B23148  18.509   7.038   4.915 -0.0394 -0.0384  0.1371
    1DIPC   NC323149   7.092   1.324   3.529  0.1380  0.1021  0.1698
    1DIPC   PO423150   6.745   1.593   3.615  0.5085 -0.0372  0.2309
    1DIPC   GL123151   6.715   1.719   4.084  0.0862 -0.1640 -0.0816
    1DIPC   GL223152   6.670   2.045   4.113  0.2076  0.1240  0.2049
    1DIPC   C1A23153   6.793   1.543   4.484 -0.0971  0.2769 -0.4932
    1DIPC   D2A23154   6.964   1.726   4.813 -0.0835  0.0315 -0.0109
    1DIPC   D3A23155   7.412   1.591   4.705  0.1114 -0.0374 -0.1239
    1DIPC   C4A23156   7.594   1.299   4.478 -0.1129  0.1754 -0.0234
    1DIPC   C1B23157   6.666   2.117   4.609 -0.0883 -0.1141  0.0706
    1DIPC   D2B23158   6.539   2.138   5.030  0.1659 -0.2653 -0.0298
    1DIPC   D3B23159   6.775   2.536   4.893 -0.0217 -0.0881  0.1451
    1DIPC   C4B23160   6.979   2.779   5.153 -0.1131  0.1083  0.1888
    1DIPC   NC323161  20.925   8.574   2.993  0.0742  0.1254 -0.1747
    1DIPC   PO423162  20.689   8.198   2.932 -0.0773  0.3316 -0.1280
    1DIPC   GL123163  20.738   8.153   3.465 -0.2405  0.1312  0.0383
    1DIPC   GL223164  20.841   8.502   3.486 -0.0444  0.0043  0.1064
    1DIPC   C1A23165  20.423   8.376   3.724  0.0216  0.3440  0.1072
    1DIPC   D2A23166  20.302   8.518   4.195 -0.0425  0.1606  0.1953
    1DIPC   D3A23167  19.984   8.482   4.410  0.1728 -0.0904  0.1173
    1DIPC   C4A23168  19.713   8.215   4.237  0.1422  0.0331 -0.0049
    1DIPC   C1B23169  21.185   8.791   3.559  0.2258  0.0483  0.2357
    1DIPC   D2B23170  21.190   8.980   3.865  0.0510  0.1084  0.1706
    1DIPC   D3B23171  21.338   9.195   4.234  0.0296  0.0719 -0.0371
    1DIPC   C4B23172  21.743   9.379   4.225 -0.1368  0.2981 -0.2079
    1DIPC   NC323173  26.739  24.229   2.605 -0.0525  0.0166  0.1849
    1DIPC   PO423174  27.135  24.108   2.545  0.0016 -0.2593  0.1909
    1DIPC   GL123175  27.102  23.983   3.042 -0.0136 -0.1336  0.0129
    1DIPC   GL223176  26.932  24.217   3.070  0.0784 -0.0516 -0.0825
    1DIPC   C1A23177  26.937  23.944   3.541 -0.2598  0.0387 -0.2858
    1DIPC   D2A23178  26.862  23.947   3.949 -0.0342  0.0480  0.0787
    1DIPC   D3A23179  27.034  24.114   4.353 -0.1726 -0.3200 -0.4001
    1DIPC   C4A23180  27.010  24.590   4.503 -0.2831  0.0055 -0.3756
    1DIPC   C1B23181  27.280  24.378   3.344 -0.0019  0.2099 -0.0558
    1DIPC   D2B23182  27.487  24.537   3.678 -0.0353 -0.1545 -0.1009
    1DIPC   D3B23183  27.391  24.380   4.151  0.2796 -0.1829  0.2956
    1DIPC   C4B23184  27.597  24.045   4.457  0.1512  0.0729  0.2825
    1DIPC   NC323185  25.743  28.460   2.713 -0.0505 -0.1155 -0.0286
    1DIPC   PO423186  26.172  28.522   2.877  0.4021  0.0792  0.2234
    1DIPC   GL123187  26.252  28.451   3.306 -0.3962 -0.2063  0.3191
    1DIPC   GL223188  26.607  28.590   3.284 -0.0658 -0.1609  0.0382
    1DIPC   C1A23189  25.978  28.267   3.677 -0.0711  0.0684 -0.0137
    1DIPC   D2A23190  25.674  28.106   3.998  0.3012 -0.1619 -0.4824
    1DIPC   D3A23191  25.824  27.718   4.145  0.0212 -0.0319  0.1527
    1DIPC   C4A23192  26.171  27.415   4.200  0.1499  0.2613  0.2399
    1DIPC   C1B23193  26.522  28.626   3.702  0.1398  0.2628 -0.1241
    1DIPC   D2B23194  26.550  28.958   4.130  0.0925  0.1448 -0.0227
    1DIPC   D3B23195  26.347  29.134   3.877  0.2818  0.0940 -0.0758
    1DIPC   C4B23196  26.167  28.943   3.531  0.0718 -0.1305 -0.1439
    1DIPC   NC323197  26.393   4.105   2.965  0.2018  0.1536  0.0602
    1DIPC   PO423198  26.633   4.523   2.888  0.0188  0.0116  0.2548
    1DIPC   GL123199  26.442   4.610   3.267  0.0204  0.2621 -0.0167
    1DIPC   GL223200  26.220   4.802   3.368 -0.0801 -0.0752  0.2665
    1DIPC   C1A23201  26.272   4.561   3.799  0.0395 -0.3629 -0.1696
    1DIPC   D2A23202  26.068   4.519   4.123  0.0379  0.0398 -0.1174
    1DIPC   D3A23203  26.188   4.245   4.375 -0.0963  0.2070 -0.3112
    1DIPC   C4A23204  26.374   4.432   4.767 -0.0786  0.1231 -0.2548
    1DIPC   C1B23205  26.278   5.115   3.684  0.0083 -0.3550  0.0865
    1DIPC   D2B23206  25.936   5.146   4.046  0.0510 -0.1686 -0.1052
    1DIPC   D3B23207  25.996   5.442   4.311 -0.0592 -0.3097 -0.0156
    1DIPC   C4B23208  26.128   5.318   4.672 -0.0751  0.2315  0.1059
    1DIPC   NC323209  16.428  29.888   2.747  0.0087 -0.2668 -0.1103
    1DIPC   PO423210  16.217  30.149   3.048 -0.0616 -0.0001  0.0416
    1DIPC   GL123211  16.376  30.149   3.538 -0.0986 -0.1938 -0.0261
    1DIPC   GL223212  16.124  30.288   3.793 -0.1229  0.3140  0.3045
    1DIPC   C1A23213  16.666  30.109   3.807 -0.1925  0.0279 -0.0815
    1DIPC   D2A23214  16.852  29.824   4.084  0.0784 -0.1032 -0.1533
    1DIPC   D3A23215  17.105  29.868   4.489  0.0284 -0.1180  0.1563
    1DIPC   C4A23216  16.936  30.052   4.864  0.2298  0.2317  0.1273
    1DIPC   C1B23217  16.136  30.085   4.171 -0.1206 -0.0833  0.0509
    1DIPC   D2B23218  16.118  29.623   4.258 -0.0370  0.1569 -0.3226
    1DIPC   D3B23219  16.016  29.474   4.731 -0.2910  0.4838  0.0005
    1DIPC   C4B23220  15.594  29.407   4.920  0.0091  0.2192 -0.0716
    1DIPC   NC323221  26.989  10.108   2.417  0.2884  0.2196  0.2297
    1DIPC   PO423222  27.350  10.072   2.475 -0.0103 -0.1616  0.0204
    1DIPC   GL123223  27.681  10.186   2.824  0.0661  0.1606 -0.0644
    1DIPC   GL223224  27.431  10.319   2.949  0.2277  0.0396 -0.1090
    1DIPC   C1A23225  27.981  10.375   3.194  0.2997 -0.5768  0.3710
    1DIPC   D2A23226  28.310  10.295   3.445 -0.1711 -0.1978 -0.1339
    1DIPC   D3A23227  28.445  10.687   3.762 -0.4956  0.1344  0.1857
    1DIPC   C4A23228  28.261  11.145   3.942  0.1620 -0.0519  0.1800
    1DIPC   C1B23229  27.543  10.322   3.356 -0.2905 -0.2588  0.2966
    1DIPC   D2B23230  27.737  10.143   3.656  0.1341 -0.0548  0.0649
    1DIPC   D3B23231  27.714   9.722   3.672  0.3103 -0.0655  0.0171
    1DIPC   C4B23232  27.510   9.483   3.945 -0.1007 -0.0246 -0.0549
    1DIPC   NC323233  29.188  27.073   2.423 -0.1453  0.1373 -0.1990
    1DIPC   PO423234  28.966  26.981   2.820  0.1950 -0.0817 -0.1411
    1DIPC   GL123235  29.116  27.105   3.274  0.0403  0.2940 -0.2133
    1DIPC   GL223236  29.267  26.784   3.404 -0.0715 -0.0090  0.3167
    1DIPC   C1A23237  28.898  26.986   3.669 -0.2630  0.0683 -0.3413
    1DIPC   D2A23238  28.706  27.250   4.061 -0.0487 -0.2459  0.1350
    1DIPC   D3A23239  28.306  27.351   3.924 -0.0231 -0.1853  0.0497
    1DIPC   C4A23240  27.935  27.518   4.156  0.0495 -0.1003 -0.3879
    1DIPC   C1B23241  29.266  26.715   3.905 -0.0102 -0.1380 -0.0956
    1DIPC   D2B23242  29.054  26.923   4.113 -0.0531 -0.3414  0.0008
    1DIPC   D3B23243  29.187  26.979   4.496 -0.2702 -0.1804  0.1367
    1DIPC   C4B23244  29.000  27.310   4.602  0.0952  0.0384 -0.1391
    1DIPC   NC323245  21.910  10.320   2.788  0.2329  0.1161  0.0127
    1DIPC   PO423246  22.010  10.034   2.704 -0.0042  0.0563  0.0713
    1DIPC   GL123247  21.973   9.726   2.956 -0.0957 -0.0009  0.1900
    1DIPC   GL223248  22.138   9.461   2.959  0.0376 -0.0145 -0.0356
    1DIPC   C1A23249  21.869   9.526   3.394  0.2682 -0.1268 -0.0159
    1DIPC   D2A23250  21.919   9.525   3.753  0.0768 -0.1103 -0.1973
    1DIPC   D3A23251  21.746   9.933   3.978 -0.2431  0.0457 -0.0382
    1DIPC   C4A23252  21.946  10.267   4.087 -0.2459 -0.0466  0.2115
    1DIPC   C1B23253  22.326   9.686   3.380 -0.0722 -0.0998 -0.3558
    1DIPC   D2B23254  22.650   9.537   3.739 -0.1563 -0.1165  0.3482
    1DIPC   D3B23255  23.019   9.704   3.943 -0.7023  0.2330  0.0482
    1DIPC   C4B23256  23.251  10.146   3.961 -0.0137  0.4803 -0.2624
    1DIPC   NC323257  25.592   4.967   2.512  0.0068 -0.2950  0.1889
    1DIPC   PO423258  25.258   5.077   2.764  0.1017  0.2327 -0.2127
    1DIPC   GL123259  25.149   4.910   3.178 -0.0576  0.2718 -0.2716
    1DIPC   GL223260  25.412   4.988   3.463 -0.1779 -0.1548  0.1576
    1DIPC   C1A23261  25.217   4.519   3.525 -0.1918 -0.2175  0.0280
    1DIPC   D2A23262  24.969   4.183   3.776 -0.1688  0.1037  0.1635
    1DIPC   D3A23263  24.649   4.285   4.152 -0.3185 -0.3021  0.0252
    1DIPC   C4A23264  24.388   4.225   4.418 -0.0105  0.1040  0.1665
    1DIPC   C1B23265  25.378   5.027   3.933 -0.1170 -0.0629  0.0197
    1DIPC   D2B23266  25.514   5.180   4.436  0.1904  0.1370  0.0015
    1DIPC   D3B23267  25.793   4.996   4.623 -0.3006 -0.0822  0.2013
    1DIPC   C4B23268  25.899   4.583   4.644  0.1477 -0.1329 -0.2580
    1DIPC   NC323269  22.189  28.631   2.561  0.1103  0.2259 -0.0868
    1DIPC   PO423270  22.195  28.685   2.957  0.1309 -0.3812 -0.1785
    1DIPC   GL123271  21.961  28.929   3.234 -0.1286  0.6153 -0.2679
    1DIPC   GL223272  21.859  28.758   3.473  0.0487  0.3140  0.0558
    1DIPC   C1A23273  21.976  29.207   3.558 -0.1392 -0.3107  0.2849
    1DIPC   D2A23274  22.218  29.052   3.886 -0.0446 -0.1744  0.1360
    1DIPC   D3A23275  21.852  29.188   4.115  0.0641  0.2182  0.2558
    1DIPC   C4A23276  21.696  29.642   4.228 -0.2034  0.0556  0.0892
    1DIPC   C1B23277  21.848  28.672   3.889 -0.1560 -0.3132 -0.1008
    1DIPC   D2B23278  21.648  28.623   4.254  0.0308  0.2215 -0.1489
    1DIPC   D3B23279  21.925  28.345   4.420  0.1128  0.1810  0.0642
    1DIPC   C4B23280  21.867  28.119   4.713  0.4034  0.0327 -0.1982
    1DIPC   NC323281  19.902   3.676   2.956 -0.1129  0.4024 -0.0031
    1DIPC   PO423282  19.753   3.298   3.105 -0.2027  0.0339 -0.0576
    1DIPC   GL123283  19.512   3.208   3.453  0.1727  0.0502  0.0548
    1DIPC   GL223284  19.390   3.443   3.576 -0.1235 -0.1161 -0.1711
    1DIPC   C1A23285  19.684   2.818   3.601  0.1084 -0.1082  0.2333
    1DIPC   D2A23286  20.014   2.696   3.810  0.1521 -0.2877  0.2375
    1DIPC   D3A23287  20.294   2.284   3.766  0.0833 -0.3187 -0.2644
    1DIPC   C4A23288  20.789   2.338   3.720  0.1287 -0.2497 -0.3467
    1DIPC   C1B23289  19.353   3.605   4.020 -0.2293 -0.0025 -0.0811
    1DIPC   D2B23290  19.599   3.499   4.322 -0.2199  0.2513  0.1104
    1DIPC   D3B23291  19.942   3.275   4.561  0.0707  0.0584  0.0582
    1DIPC   C4B23292  20.262   3.338   4.802 -0.3882  0.0637 -0.1035
    1DIPC   NC323293  24.755  22.463   2.594 -0.0225  0.0869  0.2487
    1DIPC   PO423294  24.552  22.763   2.973 -0.2055 -0.0497 -0.0305
    1DIPC   GL123295  24.373  22.908   3.366  0.3014 -0.0185 -0.1614
    1DIPC   GL223296  24.066  23.049   3.406 -0.2249 -0.1446 -0.2139
    1DIPC   C1A23297  24.331  23.017   3.833 -0.0877 -0.0944 -0.2629
    1DIPC   D2A23298  24.220  23.131   4.228  0.2566 -0.3044 -0.0981
    1DIPC   D3A23299  24.661  22.912   4.249 -0.1781  0.0218 -0.0087
    1DIPC   C4A23300  24.933  23.038   4.560 -0.1248  0.2170 -0.2160
    1DIPC   C1B23301  23.853  23.018   3.853  0.4334  0.2153  0.1495
    1DIPC   D2B23302  23.614  23.060   4.241  0.2023  0.0576  0.0796
    1DIPC   D3B23303  23.594  22.679   4.409 -0.0159  0.1770  0.1358
    1DIPC   C4B23304  23.622  22.250   4.341  0.1928  0.0845  0.0237
    1DIPC   NC323305  16.990  23.650   2.928 -0.0481  0.2274  0.2170
    1DIPC   PO423306  17.337  23.836   2.962 -0.3468  0.1545 -0.1782
    1DIPC   GL123307  17.216  23.622   3.348 -0.2199  0.0199  0.0325
    1DIPC   GL223308  16.833  23.530   3.440  0.1113 -0.1121  0.0274
    1DIPC   C1A23309  17.298  23.654   3.846  0.0120  0.0061  0.3052
    1DIPC   D2A23310  16.984  23.774   4.144  0.1313 -0.0742 -0.0360
    1DIPC   D3A23311  17.351  23.737   4.454 -0.1730 -0.2408 -0.2376
    1DIPC   C4A23312  17.723  23.530   4.296 -0.0370  0.0809 -0.0023
    1DIPC   C1B23313  16.945  23.995   3.687 -0.0107 -0.0454 -0.1016
    1DIPC   D2B23314  17.191  24.207   3.987 -0.0438  0.0081  0.2619
    1DIPC   D3B23315  17.005  24.354   4.330  0.0743  0.1110  0.4176
    1DIPC   C4B23316  17.101  24.125   4.659  0.0267 -0.1657  0.1537
    1DIPC   NC323317   0.221   3.575   2.863 -0.0631  0.0276  0.3563
    1DIPC   PO423318  -0.005   3.953   2.957 -0.3031  0.0346 -0.0500
    1DIPC   GL123319   0.057   3.740   3.387 -0.0921 -0.3163 -0.4893
    1DIPC   GL223320  -0.010   4.008   3.618  0.0433 -0.3083  0.2351
    1DIPC   C1A23321   0.100   3.615   3.883  0.1114  0.0013 -0.3353
    1DIPC   D2A23322   0.179   3.743   4.246 -0.1358  0.1705 -0.2015
    1DIPC   D3A23323  -0.138   3.287   4.397  0.0755 -0.3639 -0.0108
    1DIPC   C4A23324  -0.131   3.177   4.822 -0.0756 -0.1155 -0.0901
    1DIPC   C1B23325  -0.383   3.825   3.960 -0.1360  0.1645  0.2868
    1DIPC   D2B23326  -0.397   3.920   4.422  0.0741 -0.2295  0.3097
    1DIPC   D3B23327  -0.880   4.143   4.358 -0.0072 -0.2244  0.0341
    1DIPC   C4B23328  -1.021   4.341   3.936  0.2035  0.0999 -0.3099
    1DIPC   NC323329  26.826  10.912   1.917 -0.2361 -0.4211 -0.0185
    1DIPC   PO423330  26.727  10.492   2.154 -0.0970  0.1025 -0.4609
    1DIPC   GL123331  26.671  10.446   2.678 -0.1199  0.2559 -0.0753
    1DIPC   GL223332  27.022  10.547   2.830 -0.0083  0.2329  0.1035
    1DIPC   C1A23333  26.484  10.566   3.070 -0.1501 -0.0196 -0.1535
    1DIPC   D2A23334  26.359  10.684   3.474 -0.0386  0.0870  0.0927
    1DIPC   D3A23335  26.544  10.412   3.953  0.1798 -0.0859  0.0705
    1DIPC   C4A23336  26.876  10.195   4.138 -0.0496  0.1610 -0.0485
    1DIPC   C1B23337  26.989  10.381   3.212  0.1677  0.2553 -0.4110
    1DIPC   D2B23338  27.089  10.384   3.621 -0.2317  0.0114 -0.3620
    1DIPC   D3B23339  27.237  10.718   3.597  0.1617  0.0134 -0.1248
    1DIPC   C4B23340  27.342  11.159   3.854 -0.0153  0.0529  0.1288
    1DIPC   NC323341   2.515  18.805   1.648  0.1726  0.0420  0.0410
    1DIPC   PO423342   2.903  18.839   1.670 -0.0946 -0.3574  0.4898
    1DIPC   GL123343   2.741  18.679   2.072  0.0822 -0.0176 -0.1976
    1DIPC   GL223344   2.545  18.409   2.137 -0.3448  0.1501 -0.0651
    1DIPC   C1A23345   2.609  18.830   2.468  0.2311 -0.0725 -0.0667
    1DIPC   D2A23346   2.747  19.082   2.850  0.0431 -0.0015  0.1828
    1DIPC   D3A23347   2.353  18.933   3.099  0.2692 -0.1285  0.0103
    1DIPC   C4A23348   2.024  18.673   3.048 -0.1276  0.1672  0.0073
    1DIPC   C1B23349   2.278  18.147   2.368  0.3558 -0.1761  0.1306
    1DIPC   D2B23350   2.141  17.652   2.413 -0.0860 -0.0827  0.0404
    1DIPC   D3B23351   1.967  17.791   2.742  0.3707 -0.0276 -0.1018
    1DIPC   C4B23352   2.031  17.677   3.107 -0.0872  0.0899 -0.0687
    1DIPC   NC323353  25.372  25.750   2.416  0.2506 -0.2075  0.1047
    1DIPC   PO423354  25.391  25.577   2.837  0.3647  0.0006 -0.0038
    1DIPC   GL123355  25.374  25.310   3.184 -0.1648  0.0865 -0.2883
    1DIPC   GL223356  25.737  25.180   3.162 -0.0295 -0.3705 -0.0101
    1DIPC   C1A23357  25.297  25.194   3.672  0.3661 -0.1457  0.0056
    1DIPC   D2A23358  24.959  24.948   3.985  0.1853  0.1111  0.1800
    1DIPC   D3A23359  25.059  25.164   4.367 -0.0604  0.1139  0.1155
    1DIPC   C4A23360  25.555  25.261   4.403 -0.0813 -0.0368 -0.1241
    1DIPC   C1B23361  25.934  25.114   3.602  0.2262  0.1696  0.4203
    1DIPC   D2B23362  26.045  25.155   4.005 -0.2266 -0.0396  0.1858
    1DIPC   D3B23363  26.051  25.109   4.430 -0.1688  0.1839  0.0436
    1DIPC   C4B23364  25.877  24.711   4.512  0.1212 -0.0782 -0.2931
    1DIPC   NC323365   4.424  27.969   3.194  0.2944 -0.0117 -0.1043
    1DIPC   PO423366   4.736  28.088   3.034  0.1035  0.0514 -0.2354
    1DIPC   GL123367   4.803  27.881   3.470 -0.3096  0.0771 -0.0870
    1DIPC   GL223368   4.836  28.164   3.641  0.2537  0.0220 -0.1430
    1DIPC   C1A23369   5.085  27.539   3.427  0.0895  0.1280  0.4601
    1DIPC   D2A23370   4.790  27.143   3.233  0.0526  0.1908 -0.0608
    1DIPC   D3A23371   5.181  26.988   3.570 -0.3027  0.4290 -0.0315
    1DIPC   C4A23372   5.320  27.193   3.934 -0.2428 -0.1135 -0.0046
    1DIPC   C1B23373   5.027  28.058   4.068 -0.2315  0.0250  0.0232
    1DIPC   D2B23374   5.185  28.285   4.419  0.2215  0.1423 -0.0538
    1DIPC   D3B23375   5.295  28.296   4.827 -0.0338  0.2432 -0.2139
    1DIPC   C4B23376   5.431  28.050   5.115 -0.0259 -0.1525  0.1248
    1DIPC   NC323377  21.834  27.944   3.009 -0.0212 -0.1745 -0.2566
    1DIPC   PO423378  21.658  28.352   3.270  0.1832 -0.0516 -0.1536
    1DIPC   GL123379  21.336  28.187   3.593  0.0366 -0.0241 -0.1801
    1DIPC   GL223380  21.166  27.898   3.616  0.0575 -0.2173 -0.2449
    1DIPC   C1A23381  21.219  28.346   3.935  0.1541  0.2581  0.1443
    1DIPC   D2A23382  21.053  27.954   4.131  0.2391  0.1977 -0.0998
    1DIPC   D3A23383  21.410  27.986   4.403 -0.2066  0.0940 -0.1593
    1DIPC   C4A23384  21.485  27.680   4.734  0.0964 -0.2154 -0.1314
    1DIPC   C1B23385  21.411  27.698   3.908 -0.0390 -0.1582 -0.4502
    1DIPC   D2B23386  21.655  27.580   4.157 -0.1202 -0.3568  0.1820
    1DIPC   D3B23387  21.183  27.493   4.317 -0.2178 -0.1969  0.0321
    1DIPC   C4B23388  20.925  27.783   4.575 -0.0541 -0.0229 -0.0865
    1DIPC   NC323389  16.191   9.746   2.138 -0.1409 -0.1433  0.2184
    1DIPC   PO423390  16.170   9.821   2.520 -0.0783  0.1896  0.1301
    1DIPC   GL123391  16.075   9.905   2.968 -0.2146  0.0471  0.1495
    1DIPC   GL223392  15.993   9.645   3.149 -0.3027 -0.0141 -0.0030
    1DIPC   C1A23393  16.316  10.095   3.266  0.1314  0.2165 -0.0404
    1DIPC   D2A23394  16.440  10.541   3.269  0.2204 -0.0931  0.1678
    1DIPC   D3A23395  16.202  10.803   3.041  0.1698  0.0120 -0.2306
    1DIPC   C4A23396  16.419  11.134   2.789  0.1783 -0.3867  0.0247
    1DIPC   C1B23397  16.196   9.688   3.586 -0.0656 -0.2264 -0.0735
    1DIPC   D2B23398  16.372   9.896   3.920 -0.0072  0.0084  0.0671
    1DIPC   D3B23399  16.441   9.678   4.258 -0.1038 -0.1161 -0.2489
    1DIPC   C4B23400  16.812   9.397   4.370 -0.0872  0.0367 -0.0511
    1DIPC   NC323401  13.605   2.414   4.108  0.1263  0.1465  0.2147
    1DIPC   PO423402  13.900   2.671   3.898 -0.0975  0.0127 -0.0884
    1DIPC   GL123403  13.915   2.790   4.307  0.2335 -0.2996 -0.2281
    1DIPC   GL223404  13.812   3.088   4.340 -0.1262  0.1358 -0.1656
    1DIPC   C1A23405  14.096   2.725   4.701  0.0745  0.0529  0.0213
    1DIPC   D2A23406  13.958   2.421   5.091  0.3783  0.2786 -0.1137
    1DIPC   D3A23407  14.254   2.280   5.373 -0.0871  0.1558  0.1449
    1DIPC   C4A23408  14.548   2.024   5.321 -0.1881 -0.0886 -0.1524
    1DIPC   C1B23409  13.833   3.269   4.755 -0.0688 -0.1432  0.0667
    1DIPC   D2B23410  14.073   3.515   5.115 -0.1080 -0.0017 -0.0072
    1DIPC   D3B23411  14.033   4.003   5.169 -0.1273  0.0801 -0.1958
    1DIPC   C4B23412  13.615   4.258   5.121 -0.1683  0.2540 -0.0577
    1DIPC   NC323413   0.580  10.065   2.491 -0.4454  0.2876 -0.1953
    1DIPC   PO423414   1.023  10.068   2.658 -0.1093  0.1852 -0.2234
    1DIPC   GL123415   1.208  10.001   3.060 -0.1681  0.3062 -0.0303
    1DIPC   GL223416   1.312  10.283   3.049 -0.0852 -0.1609 -0.2016
    1DIPC   C1A23417   1.087  10.151   3.589 -0.0644  0.3711 -0.0913
    1DIPC   D2A23418   1.098  10.095   4.083 -0.1613  0.0617  0.1051
    1DIPC   D3A23419   0.952  10.494   4.296  0.1800 -0.3745  0.1353
    1DIPC   C4A23420   0.929  10.977   4.406  0.1140  0.1175  0.3381
    1DIPC   C1B23421   1.186  10.626   3.263  0.0012  0.1843  0.0043
    1DIPC   D2B23422   0.920  10.838   3.543  0.1341  0.1680  0.2294
    1DIPC   D3B23423   1.041  11.091   3.903 -0.3656 -0.1191  0.1138
    1DIPC   C4B23424   1.394  10.967   4.142  0.0746 -0.0079 -0.2828
    1DIPC   NC323425   9.566  23.717   2.594  0.1286  0.1862 -0.1555
    1DIPC   PO423426   9.408  24.080   2.618  0.1225  0.0306  0.3016
    1DIPC   GL123427   9.178  23.980   2.931 -0.2499  0.1923 -0.0655
    1DIPC   GL223428   8.968  24.188   3.104 -0.0345  0.3332 -0.0182
    1DIPC   C1A23429   9.361  23.990   3.291  0.1105  0.3822 -0.0259
    1DIPC   D2A23430   9.300  23.757   3.687 -0.0750  0.3663 -0.2757
    1DIPC   D3A23431   9.623  23.930   3.884 -0.1445 -0.0606 -0.1206
    1DIPC   C4A23432   9.796  24.383   4.100 -0.1122  0.0481  0.0313
    1DIPC   C1B23433   8.850  23.798   3.304  0.0988 -0.1024  0.0247
    1DIPC   D2B23434   8.809  23.749   3.798 -0.0739  0.0652 -0.0618
    1DIPC   D3B23435   8.373  23.706   3.646  0.0067 -0.0580 -0.0763
    1DIPC   C4B23436   8.236  23.405   3.867  0.1203 -0.2210 -0.0960
    1DIPC   NC323437  30.104  16.691   1.767 -0.0304  0.0838  0.0294
    1DIPC   PO423438  30.261  16.523   2.137 -0.0628 -0.1016 -0.1299
    1DIPC   GL123439  30.099  16.475   2.520  0.0198 -0.2357 -0.2046
    1DIPC   GL223440  29.777  16.364   2.563 -0.1701  0.0699  0.0593
    1DIPC   C1A23441  30.260  16.273   2.941 -0.1771  0.0005  0.0887
    1DIPC   D2A23442  30.147  16.241   3.365 -0.3499 -0.1670  0.1238
    1DIPC   D3A23443  30.112  15.793   3.339  0.0998  0.4516  0.0429
    1DIPC   C4A23444  30.384  15.573   3.699  0.0441  0.0802 -0.1512
    1DIPC   C1B23445  29.880  16.703   2.915 -0.1185 -0.0791  0.0250
    1DIPC   D2B23446  30.027  16.706   3.456  0.0840 -0.1333  0.0122
    1DIPC   D3B23447  29.680  16.895   3.746  0.1327  0.3338  0.0795
    1DIPC   C4B23448  29.473  17.219   3.687  0.0968  0.2894 -0.1756
    1DIPC   NC323449  25.237   1.869   2.383  0.2368  0.1394 -0.1472
    1DIPC   PO423450  25.072   1.868   2.843 -0.1774 -0.0775 -0.1050
    1DIPC   GL123451  25.111   1.998   3.229 -0.1711  0.3838 -0.0221
    1DIPC   GL223452  25.364   2.102   3.367  0.3932  0.2051 -0.3883
    1DIPC   C1A23453  25.113   1.695   3.561 -0.1978 -0.0128 -0.1808
    1DIPC   D2A23454  25.242   1.419   3.803  0.1403  0.0929  0.2343
    1DIPC   D3A23455  25.153   1.777   4.104 -0.0864  0.1391 -0.0697
    1DIPC   C4A23456  25.453   1.976   4.418 -0.1546 -0.1723 -0.3136
    1DIPC   C1B23457  25.610   1.700   3.415 -0.1523  0.0838 -0.0849
    1DIPC   D2B23458  25.677   1.652   3.798  0.0253  0.0753 -0.0107
    1DIPC   D3B23459  25.973   2.006   3.765  0.0053  0.4539  0.2199
    1DIPC   C4B23460  25.883   2.173   4.186 -0.2167 -0.2925 -0.1995
    1DIPC   NC323461   5.974  17.217   2.588 -0.0388 -0.2688 -0.1058
    1DIPC   PO423462   6.389  17.173   2.695  0.2868  0.1383  0.2580
    1DIPC   GL123463   6.429  17.030   3.054 -0.0088 -0.4570  0.3086
    1DIPC   GL223464   6.710  16.882   3.065  0.0231  0.3030 -0.3269
    1DIPC   C1A23465   6.342  16.884   3.459  0.2253  0.0521 -0.2780
    1DIPC   D2A23466   6.281  16.844   3.909 -0.1745  0.0219 -0.1222
    1DIPC   D3A23467   6.101  16.711   4.252  0.1829  0.0727 -0.2062
    1DIPC   C4A23468   5.779  16.364   4.205  0.0931  0.0817 -0.2793
    1DIPC   C1B23469   6.966  16.657   3.443  0.1296 -0.0563 -0.2958
    1DIPC   D2B23470   6.878  16.692   3.860 -0.0235 -0.0837  0.1961
    1DIPC   D3B23471   7.005  16.216   3.973  0.1192 -0.0034 -0.2625
    1DIPC   C4B23472   7.197  16.155   4.247 -0.2357 -0.0470 -0.0208
    1DIPC   NC323473  28.718  11.026   2.338  0.0813 -0.0190 -0.1038
    1DIPC   PO423474  28.556  11.473   2.298  0.0316 -0.1858 -0.0059
    1DIPC   GL123475  28.600  11.258   2.695 -0.1664 -0.1419 -0.4095
    1DIPC   GL223476  28.266  11.191   2.799  0.1202 -0.3362  0.1964
    1DIPC   C1A23477  28.810  11.198   3.082  0.0890  0.2025  0.4318
    1DIPC   D2A23478  29.137  11.121   3.377 -0.2718 -0.1519 -0.0950
    1DIPC   D3A23479  28.883  10.952   3.720 -0.0338 -0.3161  0.1120
    1DIPC   C4A23480  28.877  10.548   3.619 -0.0317 -0.2404  0.2715
    1DIPC   C1B23481  28.360  11.432   3.154 -0.0424 -0.1172  0.1061
    1DIPC   D2B23482  28.544  11.306   3.573  0.1175 -0.0931 -0.2007
    1DIPC   D3B23483  28.784  11.633   3.344  0.0590 -0.1157 -0.1668
    1DIPC   C4B23484  28.811  11.759   2.849 -0.0341  0.1398 -0.2719
    1DIPC   NC323485   6.606   8.866   3.120  0.0630  0.0513 -0.0799
    1DIPC   PO423486   7.000   9.013   3.178  0.1762 -0.2264  0.0110
    1DIPC   GL123487   6.892   8.926   3.646 -0.0089 -0.4378  0.3152
    1DIPC   GL223488   7.080   9.045   3.892  0.0013 -0.0032 -0.0706
    1DIPC   C1A23489   6.953   8.560   3.948  0.1322  0.3280  0.0506
    1DIPC   D2A23490   7.053   8.186   4.177 -0.1637 -0.1503  0.1719
    1DIPC   D3A23491   7.007   8.442   4.602  0.1913  0.2985 -0.1253
    1DIPC   C4A23492   6.602   8.650   4.581 -0.0808  0.0474  0.0607
    1DIPC   C1B23493   7.164   8.871   4.371  0.1161 -0.2367  0.0219
    1DIPC   D2B23494   6.918   8.960   4.762  0.1241  0.0995  0.1742
    1DIPC   D3B23495   6.992   9.367   4.960  0.2243 -0.1712  0.0092
    1DIPC   C4B23496   6.736   9.503   5.287 -0.1875 -0.0531 -0.3199
    1DIPC   NC323497  13.695  21.956   2.304 -0.2389 -0.1533 -0.0092
    1DIPC   PO423498  13.935  22.187   2.550 -0.1000 -0.1910 -0.2746
    1DIPC   GL123499  13.748  22.149   2.926 -0.3312  0.0976 -0.1638
    1DIPC   GL223500  13.827  21.959   3.110  0.1010 -0.0944  0.1934
    1DIPC   C1A23501  13.513  22.351   3.291  0.1774  0.2064 -0.1240
    1DIPC   D2A23502  13.608  22.729   3.616  0.1331  0.2324 -0.0718
    1DIPC   D3A23503  13.173  22.763   3.894 -0.0030 -0.0423 -0.0052
    1DIPC   C4A23504  13.102  22.532   4.228 -0.0804 -0.2698  0.1709
    1DIPC   C1B23505  13.959  22.240   3.425 -0.2019  0.0906  0.0869
    1DIPC   D2B23506  14.018  22.511   3.793 -0.1016  0.3742  0.0345
    1DIPC   D3B23507  14.185  22.552   4.196 -0.1993  0.1202 -0.4862
    1DIPC   C4B23508  14.344  22.238   4.533 -0.2928  0.1161 -0.1294
    1DIPC   NC323509  19.794  25.656   2.926  0.3445  0.2383 -0.0815
    1DIPC   PO423510  19.543  25.742   3.217  0.0747 -0.2423 -0.3540
    1DIPC   GL123511  19.422  25.944   3.552  0.1095  0.0937 -0.3138
    1DIPC   GL223512  19.261  26.160   3.525 -0.2547 -0.0597 -0.2302
    1DIPC   C1A23513  19.680  26.248   3.753 -0.2022  0.1207  0.1229
    1DIPC   D2A23514  19.774  26.677   4.017 -0.0544 -0.0837  0.1002
    1DIPC   D3A23515  19.367  26.763   4.232 -0.2657 -0.4182 -0.0017
    1DIPC   C4A23516  19.403  26.685   4.636 -0.2081 -0.1521 -0.0028
    1DIPC   C1B23517  19.274  26.318   3.963  0.0643  0.1824 -0.0647
    1DIPC   D2B23518  19.632  26.331   4.304 -0.1990 -0.1972  0.0120
    1DIPC   D3B23519  19.886  26.540   4.679 -0.1189 -0.1706  0.1537
    1DIPC   C4B23520  19.846  26.987   4.739  0.1027 -0.0701  0.0706
    1DIPC   NC323521  19.957  21.422   2.067 -0.0763  0.0877  0.0714
    1DIPC   PO423522  19.709  21.027   2.182 -0.2675 -0.0927 -0.2444
    1DIPC   GL123523  19.632  20.900   2.583  0.0666  0.3353  0.1058
    1DIPC   GL223524  19.937  20.756   2.729  0.2604  0.1303 -0.0537
    1DIPC   C1A23525  19.451  21.039   2.986 -0.3885 -0.0693  0.0804
    1DIPC   D2A23526  19.224  21.160   3.271 -0.2049 -0.1247  0.0473
    1DIPC   D3A23527  19.088  21.105   3.630  0.2238  0.0301  0.1592
    1DIPC   C4A23528  19.391  20.931   3.985  0.0743 -0.0631  0.0400
    1DIPC   C1B23529  19.796  20.717   3.120  0.1616  0.0397  0.0937
    1DIPC   D2B23530  19.687  20.995   3.431 -0.1310 -0.1568 -0.2527
    1DIPC   D3B23531  19.855  20.951   3.857  0.1138 -0.2604 -0.1341
    1DIPC   C4B23532  19.811  20.533   4.080  0.0731 -0.0859  0.2850
    1DIPC   NC323533   9.552   5.628   3.229  0.2708 -0.1628  0.0996
    1DIPC   PO423534   9.925   5.619   3.351  0.1863 -0.0980 -0.1330
    1DIPC   GL123535   9.810   5.769   3.848  0.3157 -0.0208 -0.1878
    1DIPC   GL223536   9.466   5.914   3.933 -0.1758  0.1166  0.0022
    1DIPC   C1A23537  10.034   5.813   4.262  0.2232 -0.2170 -0.0423
    1DIPC   D2A23538  10.095   5.593   4.770  0.1533 -0.3120 -0.1403
    1DIPC   D3A23539  10.170   5.706   5.210 -0.1029 -0.0638  0.0525
    1DIPC   C4A23540  10.617   5.702   5.470 -0.2925 -0.0423  0.1351
    1DIPC   C1B23541   9.641   6.115   4.245 -0.1768  0.0646  0.1688
    1DIPC   D2B23542   9.588   6.324   4.617  0.0292 -0.2195  0.3907
    1DIPC   D3B23543   9.748   5.962   4.689 -0.4843  0.2400  0.0480
    1DIPC   C4B23544   9.678   5.686   5.019  0.3439  0.0353 -0.1439
    1DIPC   NC323545  26.054   0.671   2.732  0.1077  0.0460  0.0646
    1DIPC   PO423546  26.397   0.413   2.605 -0.1327 -0.2999  0.2275
    1DIPC   GL123547  26.444   0.383   3.103 -0.0337 -0.1492  0.0151
    1DIPC   GL223548  26.346   0.736   3.211  0.2092  0.2594  0.4191
    1DIPC   C1A23549  26.314   0.314   3.478  0.1616 -0.1914 -0.0663
    1DIPC   D2A23550  25.976   0.358   3.669  0.1181  0.4255  0.1259
    1DIPC   D3A23551  26.163   0.549   3.983  0.2672  0.0559  0.3633
    1DIPC   C4A23552  26.291   0.456   4.311 -0.2043  0.1340 -0.0083
    1DIPC   C1B23553  26.763   0.534   3.418  0.0516 -0.0384 -0.0713
    1DIPC   D2B23554  26.962   0.582   3.801  0.3414 -0.0663 -0.2836
    1DIPC   D3B23555  26.726   0.713   4.186  0.2141 -0.2269 -0.0977
    1DIPC   C4B23556  26.991   0.916   4.477 -0.0081  0.2726  0.0241
    1DIPC   NC323557  28.913   0.020   3.284 -0.1363 -0.2771  0.3205
    1DIPC   PO423558  29.258   0.295   3.225  0.0590 -0.1745  0.1175
    1DIPC   GL123559  29.021   0.513   3.428 -0.5064 -0.1408  0.1766
    1DIPC   GL223560  28.946   0.341   3.729 -0.0830 -0.0304 -0.1551
    1DIPC   C1A23561  29.054   0.985   3.612  0.1247  0.2177 -0.0261
    1DIPC   D2A23562  29.223   1.302   3.734  0.2430  0.0469 -0.0685
    1DIPC   D3A23563  28.979   1.234   4.008  0.1627  0.5298 -0.1043
    1DIPC   C4A23564  28.954   0.702   4.162 -0.2302 -0.0221 -0.0827
    1DIPC   C1B23565  28.905  -0.104   4.085 -0.1071 -0.0024  0.0918
    1DIPC   D2B23566  28.937  -0.231   4.526  0.2748  0.3832 -0.1409
    1DIPC   D3B23567  28.749  -0.593   4.615 -0.1170 -0.0634  0.0013
    1DIPC   C4B23568  28.763  -1.036   4.356  0.2329 -0.5465  0.0423
    1DIPC   NC323569   4.531  25.250   1.595 -0.1600  0.2159 -0.0100
    1DIPC   PO423570   4.932  25.088   1.839  0.0549 -0.1238 -0.2361
    1DIPC   GL123571   4.713  25.192   2.136 -0.0046 -0.1357 -0.0152
    1DIPC   GL223572   4.425  25.385   2.073  0.1461  0.0496 -0.3199
    1DIPC   C1A23573   4.492  24.999   2.518 -0.3317  0.2223  0.0826
    1DIPC   D2A23574   4.327  24.693   2.776  0.0182  0.1250  0.0852
    1DIPC   D3A23575   4.050  24.864   3.132  0.2252 -0.0131 -0.2263
    1DIPC   C4A23576   3.815  24.814   3.566  0.0676  0.0700  0.0879
    1DIPC   C1B23577   4.143  25.326   2.392 -0.1220  0.0810  0.2132
    1DIPC   D2B23578   4.189  25.253   2.843  0.1316  0.0002 -0.1680
    1DIPC   D3B23579   3.807  25.165   2.811  0.3372  0.0522  0.1267
    1DIPC   C4B23580   3.796  24.891   2.485  0.1315  0.2306  0.0512
    1DIPC   NC323581   5.429  16.504   1.950  0.0238  0.0758  0.2568
    1DIPC   PO423582   5.299  16.790   1.939  0.0866 -0.3048  0.1198
    1DIPC   GL123583   5.107  16.831   2.269  0.2937  0.0649 -0.1986
    1DIPC   GL223584   4.947  17.097   2.356 -0.1290 -0.0828  0.0864
    1DIPC   C1A23585   4.939  16.775   2.670  0.3892  0.0253 -0.1477
    1DIPC   D2A23586   4.872  16.819   3.180  0.3012 -0.0459  0.7011
    1DIPC   D3A23587   4.342  16.832   3.306 -0.0605 -0.0910  0.2399
    1DIPC   C4A23588   4.476  16.871   3.752  0.1712  0.3005 -0.0697
    1DIPC   C1B23589   4.710  17.242   2.518 -0.1336  0.4415  0.1000
    1DIPC   D2B23590   4.535  17.002   2.826  0.1984  0.0057 -0.0373
    1DIPC   D3B23591   4.569  17.264   3.196  0.3630 -0.1698 -0.1990
    1DIPC   C4B23592   4.446  17.562   3.506 -0.2636  0.2407 -0.0659
    1DIPC   NC323593   7.604   0.121   2.801  0.1605  0.3002 -0.5499
    1DIPC   PO423594   7.648  -0.212   3.166 -0.2178 -0.0092 -0.2244
    1DIPC   GL123595   7.511  -0.369   3.624  0.1692 -0.0961 -0.0554
    1DIPC   GL223596   7.254  -0.185   3.764 -0.2729  0.4316  0.2395
    1DIPC   C1A23597   7.784  -0.477   3.973  0.2012  0.1127  0.0082
    1DIPC   D2A23598   7.934  -0.463   4.401 -0.0591 -0.1210  0.1821
    1DIPC   D3A23599   7.755  -0.255   4.863  0.0273 -0.1740  0.1605
    1DIPC   C4A23600   7.770   0.138   5.018 -0.1941 -0.0125 -0.1357
    1DIPC   C1B23601   7.561   0.057   3.852  0.0210 -0.0741 -0.0487
    1DIPC   D2B23602   7.479   0.338   4.131 -0.1702  0.2842 -0.0111
    1DIPC   D3B23603   7.657  -0.006   4.336  0.2257  0.1121  0.0448
    1DIPC   C4B23604   7.483  -0.505   4.467  0.0029  0.1644  0.0538
    1DIPC   NC323605  19.141  26.700   3.232 -0.3127 -0.0020  0.1456
    1DIPC   PO423606  19.425  27.012   3.228  0.1114  0.0545 -0.0521
    1DIPC   GL123607  19.345  27.335   3.489 -0.1510 -0.0151 -0.0907
    1DIPC   GL223608  19.024  27.085   3.595  0.2098  0.2610  0.0058
    1DIPC   C1A23609  19.298  27.357   3.935 -0.0154  0.0659  0.0987
    1DIPC   D2A23610  19.087  27.501   4.346  0.1221  0.3738 -0.6199
    1DIPC   D3A23611  19.236  27.683   4.681  0.0939  0.2410  0.1600
    1DIPC   C4A23612  19.601  27.967   4.715 -0.4539 -0.1337  0.0819
    1DIPC   C1B23613  18.989  26.974   4.004  0.1227 -0.2023 -0.0974
    1DIPC   D2B23614  18.835  26.562   4.144 -0.0866 -0.2035 -0.0489
    1DIPC   D3B23615  18.932  26.162   4.400  0.0878  0.1211 -0.1266
    1DIPC   C4B23616  19.182  25.859   4.220 -0.2999 -0.0604 -0.1204
    1DIPC   NC323617  24.940   7.212   2.546 -0.1312  0.0101  0.0256
    1DIPC   PO423618  24.822   7.723   2.619  0.0096 -0.2621 -0.0196
    1DIPC   GL123619  25.098   7.781   2.981 -0.1428  0.3610 -0.0993
    1DIPC   GL223620  25.369   7.800   2.875  0.2409  0.1973 -0.4852
    1DIPC   C1A23621  25.225   7.903   3.435 -0.2830 -0.0502  0.2431
    1DIPC   D2A23622  25.277   7.930   3.791  0.0132 -0.0585 -0.1391
    1DIPC   D3A23623  25.190   8.250   4.091  0.1959  0.2666  0.1046
    1DIPC   C4A23624  25.289   8.451   4.430  0.2397 -0.1414  0.0665
    1DIPC   C1B23625  25.798   7.593   3.075 -0.0699 -0.1585  0.3763
    1DIPC   D2B23626  25.739   7.220   3.258  0.0907 -0.2991  0.1991
    1DIPC   D3B23627  25.439   7.398   3.553  0.3800  0.2761 -0.1794
    1DIPC   C4B23628  25.331   6.992   3.690  0.1816 -0.2082  0.0541
    1DIPC   NC323629   0.209  18.897   1.960  0.2069 -0.0117  0.0817
    1DIPC   PO423630   0.045  19.342   1.951  0.0274 -0.4388  0.0508
    1DIPC   GL123631  -0.205  19.233   2.282  0.1196  0.0765 -0.5377
    1DIPC   GL223632  -0.423  19.470   2.523  0.2043 -0.3582  0.0154
    1DIPC   C1A23633  -0.131  18.768   2.470  0.0181 -0.2354  0.0661
    1DIPC   D2A23634  -0.207  18.509   2.747 -0.4654 -0.2486  0.3195
    1DIPC   D3A23635   0.075  18.444   3.031  0.0344  0.0132  0.3763
    1DIPC   C4A23636   0.361  18.769   3.323  0.0455 -0.1080  0.3882
    1DIPC   C1B23637  -0.191  19.278   2.789  0.2009 -0.1877 -0.0133
    1DIPC   D2B23638   0.057  18.994   3.061 -0.1167  0.1997 -0.0045
    1DIPC   D3B23639   0.389  19.356   3.154  0.2620 -0.1933  0.3853
    1DIPC   C4B23640   0.589  19.242   3.564  0.0735 -0.4744 -0.0054
    1DIPC   NC323641  11.639   6.517   3.466 -0.0599  0.1757 -0.1160
    1DIPC   PO423642  11.999   6.415   3.341 -0.3899 -0.1142  0.1411
    1DIPC   GL123643  11.881   6.044   3.684  0.0967 -0.4779 -0.1372
    1DIPC   GL223644  11.565   6.036   3.670  0.0325 -0.2460 -0.0739
    1DIPC   C1A23645  11.843   5.984   4.170 -0.0797  0.0044 -0.1741
    1DIPC   D2A23646  11.944   5.604   4.278 -0.1881 -0.0774 -0.0335
    1DIPC   D3A23647  12.091   5.728   4.660 -0.4184 -0.0706  0.1754
    1DIPC   C4A23648  12.106   6.130   4.724 -0.0355 -0.0184 -0.0672
    1DIPC   C1B23649  11.295   5.990   4.062 -0.4061  0.2436 -0.0809
    1DIPC   D2B23650  11.545   6.076   4.489  0.0420  0.1020  0.3004
    1DIPC   D3B23651  11.457   6.196   4.789  0.2647 -0.0618 -0.0142
    1DIPC   C4B23652  11.733   5.907   5.038  0.2606 -0.0883  0.1804
    1DIPC   NC323653  22.187  25.762   3.139 -0.0650  0.0776 -0.1660
    1DIPC   PO423654  21.820  25.544   3.163  0.0469  0.0441 -0.0350
    1DIPC   GL123655  21.933  25.329   3.554 -0.0871 -0.3387  0.2983
    1DIPC   GL223656  22.214  25.133   3.755  0.0243 -0.0548  0.4845
    1DIPC   C1A23657  21.849  25.478   4.024 -0.0194  0.2323 -0.1882
    1DIPC   D2A23658  21.629  25.699   4.424  0.0670  0.0662  0.2108
    1DIPC   D3A23659  22.056  25.851   4.624 -0.1472 -0.1953  0.2207
    1DIPC   C4A23660  22.217  25.843   5.033  0.4278  0.0118 -0.0382
    1DIPC   C1B23661  22.456  25.085   4.171 -0.1769  0.0862 -0.3035
    1DIPC   D2B23662  22.906  24.932   4.335 -0.1591  0.2458  0.0393
    1DIPC   D3B23663  23.080  24.763   4.606 -0.2474  0.2268 -0.3191
    1DIPC   C4B23664  22.975  24.364   4.478  0.2541 -0.2418 -0.1832
    1DIPC   NC323665  27.229   3.011   2.225 -0.1649 -0.1319  0.2698
    1DIPC   PO423666  27.060   3.460   2.249  0.4939  0.1114 -0.0462
    1DIPC   GL123667  27.220   3.372   2.659 -0.0287 -0.3555  0.2078
    1DIPC   GL223668  27.615   3.399   2.688 -0.3544  0.2627 -0.2122
    1DIPC   C1A23669  27.290   3.318   3.077  0.0088 -0.0728  0.1521
    1DIPC   D2A23670  27.090   3.361   3.517 -0.2085 -0.1421 -0.0435
    1DIPC   D3A23671  27.235   2.901   3.573  0.1122 -0.1114 -0.0212
    1DIPC   C4A23672  27.015   2.561   3.503 -0.1975  0.1505  0.2867
    1DIPC   C1B23673  27.808   3.092   2.885 -0.1843  0.0973  0.2202
    1DIPC   D2B23674  28.011   3.008   3.321 -0.0808  0.2859  0.2878
    1DIPC   D3B23675  27.778   2.900   3.756 -0.0267 -0.2248 -0.0810
    1DIPC   C4B23676  27.933   2.695   4.076 -0.2189  0.0251  0.2355
    1DIPC   NC323677  23.274   5.045   3.123 -0.0029  0.3815  0.2433
    1DIPC   PO423678  23.685   4.950   3.217 -0.0470  0.0373 -0.2410
    1DIPC   GL123679  23.863   5.107   3.715  0.1236  0.1978 -0.4124
    1DIPC   GL223680  23.738   5.402   3.950 -0.3816 -0.0327  0.0183
    1DIPC   C1A23681  24.081   5.011   4.025 -0.1161  0.0975 -0.1245
    1DIPC   D2A23682  24.098   4.711   4.355  0.1630  0.1095  0.0646
    1DIPC   D3A23683  24.139   5.078   4.509  0.1245 -0.0067  0.1531
    1DIPC   C4A23684  24.169   5.439   4.269 -0.0880  0.4126  0.0307
    1DIPC   C1B23685  23.681   5.240   4.304  0.2354  0.1193 -0.1301
    1DIPC   D2B23686  23.612   4.879   4.367  0.5744  0.3312  0.0713
    1DIPC   D3B23687  23.658   4.792   4.741  0.1485 -0.0894  0.0303
    1DIPC   C4B23688  23.523   5.019   5.133 -0.1268  0.3542  0.0324
    1DIPC   NC323689  12.452  26.414   2.586 -0.0482 -0.0971 -0.0873
    1DIPC   PO423690  12.704  26.213   2.704  0.2069 -0.2093 -0.1055
    1DIPC   GL123691  12.481  25.996   3.003 -0.0553  0.1884 -0.0538
    1DIPC   GL223692  12.197  26.077   3.160 -0.0179 -0.0635 -0.1540
    1DIPC   C1A23693  12.310  25.692   3.396 -0.5123  0.0090  0.1944
    1DIPC   D2A23694  12.205  25.411   3.836 -0.0690 -0.0041 -0.1102
    1DIPC   D3A23695  11.983  25.343   4.305  0.2017  0.2539 -0.0943
    1DIPC   C4A23696  11.588  25.549   4.487 -0.1263 -0.1727  0.1642
    1DIPC   C1B23697  12.086  26.102   3.619  0.1099 -0.0031 -0.0993
    1DIPC   D2B23698  12.321  26.242   3.900  0.3674 -0.1474 -0.0325
    1DIPC   D3B23699  12.312  26.467   4.326 -0.0322  0.0378 -0.1210
    1DIPC   C4B23700  12.621  26.669   4.490  0.1608 -0.0786 -0.1269
    1DIPC   NC323701  20.532  23.284   2.750  0.2033  0.2388  0.1653
    1DIPC   PO423702  20.820  22.977   2.800  0.1863  0.2635  0.3591
    1DIPC   GL123703  20.949  22.871   3.290 -0.1240 -0.0214 -0.0925
    1DIPC   GL223704  21.100  23.163   3.231  0.0122 -0.0322 -0.1278
    1DIPC   C1A23705  20.876  22.564   3.712  0.1398 -0.0271  0.0315
    1DIPC   D2A23706  21.050  22.154   3.972 -0.1125  0.1402 -0.1211
    1DIPC   D3A23707  21.338  22.370   4.308  0.0788  0.0364 -0.0164
    1DIPC   C4A23708  21.455  22.260   4.797  0.0808 -0.1754 -0.0340
    1DIPC   C1B23709  21.071  23.202   3.703  0.1691  0.1543 -0.1906
    1DIPC   D2B23710  20.773  23.023   4.019 -0.1565 -0.0800 -0.0032
    1DIPC   D3B23711  20.614  23.437   4.069  0.0335 -0.1524  0.0383
    1DIPC   C4B23712  20.337  23.574   4.333  0.2545 -0.0785  0.1603
    1DIPC   NC323713   2.942   2.667   2.833  0.1626 -0.3417  0.2606
    1DIPC   PO423714   2.782   3.059   3.069  0.0844  0.1199  0.0713
    1DIPC   GL123715   2.768   2.790   3.546 -0.0769 -0.0512  0.2295
    1DIPC   GL223716   2.966   2.919   3.815 -0.1119 -0.0435 -0.0737
    1DIPC   C1A23717   2.795   2.487   4.038  0.0526 -0.0464  0.1885
    1DIPC   D2A23718   2.878   2.712   4.444 -0.2785 -0.0078 -0.0091
    1DIPC   D3A23719   2.994   3.152   4.449  0.0467  0.2936  0.1769
    1DIPC   C4A23720   3.020   3.340   4.001 -0.1517  0.1788 -0.2377
    1DIPC   C1B23721   2.583   3.004   4.087 -0.1914 -0.1545  0.1049
    1DIPC   D2B23722   2.427   3.247   4.377 -0.1366  0.0023 -0.1571
    1DIPC   D3B23723   2.083   2.973   4.412 -0.3161 -0.0045 -0.2233
    1DIPC   C4B23724   1.838   2.886   4.037  0.0323 -0.0542 -0.2357
    1DIPC   NC323725  28.932  17.233   1.900  0.2722  0.2450  0.2068
    1DIPC   PO423726  29.318  17.331   1.848  0.6049 -0.0193  0.0600
    1DIPC   GL123727  29.447  17.372   2.251 -0.0722  0.0767  0.0362
    1DIPC   GL223728  29.543  17.727   2.301 -0.0100  0.0303  0.0946
    1DIPC   C1A23729  29.650  17.309   2.560 -0.0182 -0.2554  0.0044
    1DIPC   D2A23730  29.974  17.212   2.904  0.2985  0.0548 -0.1903
    1DIPC   D3A23731  29.776  17.172   3.242  0.1599 -0.0136  0.1547
    1DIPC   C4A23732  29.462  16.944   3.199 -0.0295 -0.1228 -0.1570
    1DIPC   C1B23733  29.808  17.920   2.537 -0.0770 -0.0417  0.0644
    1DIPC   D2B23734  29.802  18.106   2.939  0.1637  0.1611  0.0995
    1DIPC   D3B23735  30.204  17.978   2.862  0.5077 -0.3953 -0.0389
    1DIPC   C4B23736  30.299  18.009   3.319 -0.0668  0.1600 -0.1387
    1DIPC   NC323737   4.858  16.530   1.790  0.1644 -0.1551 -0.0935
    1DIPC   PO423738   4.747  15.971   1.939  0.0095 -0.3236  0.1689
    1DIPC   GL123739   4.735  15.948   2.414  0.1248 -0.1807  0.3042
    1DIPC   GL223740   4.361  16.025   2.411  0.1850 -0.0981  0.2101
    1DIPC   C1A23741   5.016  16.132   2.766 -0.2864 -0.3010 -0.3011
    1DIPC   D2A23742   5.188  16.402   2.993  0.3436 -0.0092 -0.1553
    1DIPC   D3A23743   5.023  16.335   3.320 -0.1357 -0.1644  0.0716
    1DIPC   C4A23744   5.037  15.990   3.493 -0.1131 -0.1708  0.0250
    1DIPC   C1B23745   3.947  16.053   2.524 -0.1798  0.1131 -0.1146
    1DIPC   D2B23746   3.650  16.201   2.270 -0.1356 -0.1268  0.0036
    1DIPC   D3B23747   3.483  15.869   2.558  0.1360  0.0043  0.2916
    1DIPC   C4B23748   3.688  15.829   2.885 -0.1544 -0.1219  0.0008
    1DIPC   NC323749   5.970   6.679   3.446 -0.0688 -0.4158 -0.0434
    1DIPC   PO423750   6.241   6.849   3.734  0.0804  0.1705  0.0133
    1DIPC   GL123751   5.853   6.942   3.914 -0.4094  0.0350 -0.2811
    1DIPC   GL223752   5.733   7.242   3.932 -0.1462 -0.2433  0.0475
    1DIPC   C1A23753   5.745   6.723   4.277  0.3401  0.0601  0.0027
    1DIPC   D2A23754   5.430   6.668   4.562 -0.1138  0.2658 -0.0201
    1DIPC   D3A23755   5.527   6.731   4.944  0.1285 -0.1971  0.0429
    1DIPC   C4A23756   5.614   6.303   5.078  0.0474 -0.1658 -0.0732
    1DIPC   C1B23757   5.328   7.430   4.089  0.2496  0.2393  0.3780
    1DIPC   D2B23758   4.872   7.445   4.298 -0.0930  0.2262  0.0085
    1DIPC   D3B23759   5.094   7.757   4.599  0.0623 -0.0349 -0.1959
    1DIPC   C4B23760   5.388   7.605   4.863  0.1296 -0.1667  0.1671
    1DIPC   NC323761   2.925  16.453   1.772  0.2309  0.1703  0.0324
    1DIPC   PO423762   2.740  16.118   1.887 -0.4163 -0.2612 -0.1692
    1DIPC   GL123763   2.666  16.047   2.333 -0.0161  0.2465  0.2115
    1DIPC   GL223764   3.001  15.936   2.531  0.1912  0.1835 -0.1699
    1DIPC   C1A23765   2.455  16.044   2.716  0.0444 -0.1145  0.0093
    1DIPC   D2A23766   2.256  15.694   3.038 -0.0375 -0.2578 -0.0378
    1DIPC   D3A23767   2.055  15.732   3.396 -0.5154 -0.0634 -0.1383
    1DIPC   C4A23768   2.158  15.659   3.875 -0.1872  0.0413  0.1866
    1DIPC   C1B23769   3.173  16.123   2.901 -0.1840 -0.0833  0.1850
    1DIPC   D2B23770   3.218  16.465   3.166  0.0660 -0.3137  0.0167
    1DIPC   D3B23771   3.302  16.265   3.466 -0.1475  0.0172  0.0122
    1DIPC   C4B23772   3.438  16.589   3.789  0.0507  0.2058 -0.2742
    1DIPC   NC323773  11.071  27.290   2.801  0.2607 -0.1427 -0.0673
    1DIPC   PO423774  11.457  27.173   2.712 -0.1716 -0.0161  0.3307
    1DIPC   GL123775  11.308  27.117   3.160  0.0957 -0.2237 -0.0796
    1DIPC   GL223776  11.544  27.246   3.342 -0.2280  0.0854 -0.1501
    1DIPC   C1A23777  10.992  26.908   3.474  0.2091  0.2997  0.2887
    1DIPC   D2A23778  10.911  26.802   3.862  0.1652  0.6128  0.0613
    1DIPC   D3A23779  10.684  26.751   4.117 -0.0104  0.0910 -0.0230
    1DIPC   C4A23780  10.271  26.985   4.137 -0.1065  0.1928  0.3075
    1DIPC   C1B23781  11.433  27.006   3.667 -0.2376 -0.2282 -0.3380
    1DIPC   D2B23782  11.736  26.705   3.678 -0.0563 -0.0846 -0.0219
    1DIPC   D3B23783  11.839  26.415   3.991 -0.1527  0.1470 -0.1015
    1DIPC   C4B23784  11.786  26.643   4.375  0.0139  0.3462 -0.1594
    1DIPC   NC323785  26.155  20.499   1.980  0.0689 -0.1768 -0.0239
    1DIPC   PO423786  25.725  20.197   1.933  0.2936  0.0006  0.1564
    1DIPC   GL123787  25.857  20.380   2.381 -0.2569  0.0150  0.0622
    1DIPC   GL223788  25.688  20.613   2.571  0.2752  0.2279  0.1765
    1DIPC   C1A23789  26.004  20.305   2.865  0.2549 -0.1634  0.2274
    1DIPC   D2A23790  25.809  20.217   3.257  0.0814  0.1287  0.2429
    1DIPC   D3A23791  25.891  19.763   3.282  0.2095  0.0179  0.0020
    1DIPC   C4A23792  25.911  19.304   3.511 -0.0111  0.2037  0.0612
    1DIPC   C1B23793  25.755  20.849   2.958 -0.1049  0.1423  0.3118
    1DIPC   D2B23794  25.731  20.768   3.369  0.1766  0.0414  0.0342
    1DIPC   D3B23795  25.562  21.158   3.645 -0.2123 -0.3463 -0.2177
    1DIPC   C4B23796  25.714  21.536   3.745 -0.1011  0.0619  0.1153
    1DIPC   NC323797   7.577  23.553   2.155 -0.3244 -0.2881 -0.1106
    1DIPC   PO423798   7.346  23.220   2.072 -0.3512 -0.1562 -0.2250
    1DIPC   GL123799   7.165  23.457   2.439 -0.0032 -0.2295 -0.4008
    1DIPC   GL223800   6.838  23.664   2.420  0.0344 -0.0535 -0.0857
    1DIPC   C1A23801   7.084  23.600   2.803 -0.4080  0.2214  0.0308
    1DIPC   D2A23802   6.952  23.455   3.188  0.1501  0.2232  0.2118
    1DIPC   D3A23803   6.764  23.176   3.576  0.0040 -0.1254 -0.0003
    1DIPC   C4A23804   6.577  23.413   3.993 -0.0353 -0.0518  0.1636
    1DIPC   C1B23805   6.604  23.628   2.766 -0.1230 -0.2274 -0.2949
    1DIPC   D2B23806   6.248  23.485   2.687 -0.2279  0.0949 -0.0077
    1DIPC   D3B23807   6.420  23.334   3.093  0.3362  0.1336  0.1574
    1DIPC   C4B23808   6.344  23.465   3.537 -0.0232  0.0493 -0.1552
    1DIPC   NC323809  26.011  14.579   1.410 -0.0077 -0.0613 -0.3283
    1DIPC   PO423810  25.800  14.741   1.724 -0.1675  0.1268  0.0996
    1DIPC   GL123811  25.617  14.769   2.170 -0.2042  0.1547  0.1288
    1DIPC   GL223812  25.342  14.837   2.161 -0.1888 -0.0141  0.2677
    1DIPC   C1A23813  25.841  14.916   2.569 -0.1555  0.0585  0.0030
    1DIPC   D2A23814  25.879  15.127   3.006  0.0492 -0.1555  0.0146
    1DIPC   D3A23815  26.287  15.204   2.949 -0.1364  0.0719 -0.1276
    1DIPC   C4A23816  26.522  14.959   3.151 -0.5245 -0.0946 -0.3015
    1DIPC   C1B23817  25.348  15.033   2.564 -0.0064 -0.0709  0.1734
    1DIPC   D2B23818  24.951  15.185   2.896  0.0667 -0.1639  0.2496
    1DIPC   D3B23819  24.635  15.097   3.203  0.0142  0.0795  0.1870
    1DIPC   C4B23820  24.664  14.969   3.672 -0.1492  0.0614 -0.0708
    1DIPC   NC323821  27.569   7.113   2.654 -0.0345 -0.2246  0.0831
    1DIPC   PO423822  27.988   6.982   2.477 -0.2390 -0.0302 -0.1665
    1DIPC   GL123823  28.107   7.010   2.945 -0.0683 -0.1132  0.0793
    1DIPC   GL223824  28.360   7.278   2.857  0.0267  0.1035 -0.0926
    1DIPC   C1A23825  28.073   6.948   3.416  0.0159  0.2122 -0.0855
    1DIPC   D2A23826  27.716   6.959   3.832  0.1954 -0.0187 -0.0911
    1DIPC   D3A23827  28.100   7.113   3.964  0.2881  0.1688 -0.2517
    1DIPC   C4A23828  27.859   7.443   4.158  0.1258  0.1583  0.0340
    1DIPC   C1B23829  28.161   7.545   3.187 -0.1174  0.1959  0.1922
    1DIPC   D2B23830  27.885   7.364   3.568 -0.1623 -0.0928  0.0311
    1DIPC   D3B23831  28.253   7.687   3.802  0.0199  0.1384  0.3292
    1DIPC   C4B23832  28.703   7.732   3.729 -0.0346 -0.0859  0.0674
    1DIPC   NC323833  25.175   0.956   2.963  0.3375  0.1213  0.3530
    1DIPC   PO423834  24.933   1.381   2.997  0.0885  0.1387  0.0034
    1DIPC   GL123835  24.954   1.129   3.406  0.1102 -0.2704  0.0857
    1DIPC   GL223836  24.812   1.283   3.618  0.1283  0.1935  0.1533
    1DIPC   C1A23837  25.142   0.929   3.678 -0.1254 -0.3360  0.0925
    1DIPC   D2A23838  25.236   0.943   4.039 -0.0126  0.0091 -0.0760
    1DIPC   D3A23839  25.571   0.769   3.894  0.3885  0.0280  0.0324
    1DIPC   C4A23840  25.676   0.356   4.111  0.0234  0.1442 -0.2635
    1DIPC   C1B23841  24.821   1.206   4.054  0.1004  0.1851 -0.1197
    1DIPC   D2B23842  24.948   1.500   4.444  0.3103 -0.1322  0.0595
    1DIPC   D3B23843  25.388   1.392   4.391 -0.1660 -0.0329  0.0110
    1DIPC   C4B23844  25.571   1.042   4.491  0.0277 -0.1125  0.2518
    1DIPC   NC323845  18.833  27.016   2.720 -0.0783 -0.1318  0.2662
    1DIPC   PO423846  18.771  27.071   3.114  0.0861  0.2211  0.0378
    1DIPC   GL123847  18.461  27.254   3.339  0.0775  0.2923  0.2827
    1DIPC   GL223848  18.238  26.980   3.459 -0.0573 -0.0341 -0.1306
    1DIPC   C1A23849  18.245  27.590   3.593 -0.0806 -0.2782  0.1421
    1DIPC   D2A23850  18.296  27.785   4.110 -0.2938  0.1729 -0.2157
    1DIPC   D3A23851  18.725  27.827   4.337 -0.0250  0.1968  0.0995
    1DIPC   C4A23852  18.767  27.585   4.728 -0.0227 -0.2773  0.0759
    1DIPC   C1B23853  18.169  27.237   3.994 -0.0934 -0.2706  0.1736
    1DIPC   D2B23854  17.932  27.483   4.348  0.0839 -0.0371 -0.2063
    1DIPC   D3B23855  17.914  27.018   4.496  0.2183  0.0183  0.0048
    1DIPC   C4B23856  17.651  26.931   4.863  0.1738 -0.2721 -0.0232
    1DIPC   NC323857   7.685  15.277   2.468  0.1020 -0.1095 -0.1018
    1DIPC   PO423858   7.938  15.549   2.691  0.1179  0.1580  0.0309
    1DIPC   GL123859   8.042  15.537   3.087 -0.0094 -0.2230  0.0089
    1DIPC   GL223860   8.063  15.207   3.109  0.3326 -0.1290  0.2786
    1DIPC   C1A23861   7.832  15.748   3.457  0.1223 -0.1263 -0.0135
    1DIPC   D2A23862   7.761  15.945   3.898  0.1312 -0.1434  0.0258
    1DIPC   D3A23863   7.669  15.843   4.255  0.3910 -0.1433 -0.0561
    1DIPC   C4A23864   7.550  16.159   4.609 -0.1075 -0.1639  0.3558
    1DIPC   C1B23865   8.165  15.306   3.498 -0.0326 -0.4391  0.0458
    1DIPC   D2B23866   8.266  15.707   3.778  0.0006  0.0691 -0.0001
    1DIPC   D3B23867   8.440  15.514   4.070 -0.0971  0.1377  0.0952
    1DIPC   C4B23868   8.654  15.906   4.295 -0.2219  0.2357  0.3161
    1DIPC   NC323869  27.714  14.279   2.175 -0.1966 -0.1703  0.0520
    1DIPC   PO423870  28.162  14.324   2.112 -0.2008  0.4497 -0.1116
    1DIPC   GL123871  28.155  14.249   2.480 -0.2530  0.0212  0.4527
    1DIPC   GL223872  27.904  14.396   2.690  0.1385  0.0665 -0.0411
    1DIPC   C1A23873  28.362  14.267   2.929 -0.2394  0.0527  0.0142
    1DIPC   D2A23874  28.239  14.113   3.318 -0.2565 -0.0838 -0.0817
    1DIPC   D3A23875  28.336  13.882   3.616 -0.2419 -0.1180  0.2970
    1DIPC   C4A23876  28.605  13.470   3.567  0.1958 -0.1118  0.0740
    1DIPC   C1B23877  27.842  14.200   3.084  0.1636  0.0706 -0.1421
    1DIPC   D2B23878  27.815  13.910   3.456  0.1263 -0.1145  0.0795
    1DIPC   D3B23879  27.956  13.678   3.162 -0.1578  0.0592 -0.1255
    1DIPC   C4B23880  27.994  13.867   2.758  0.1679  0.0014  0.1449
    1DIPC   NC323881  24.052  12.773   1.982 -0.2208 -0.0692 -0.2067
    1DIPC   PO423882  23.809  12.906   2.367  0.1791 -0.2085 -0.3680
    1DIPC   GL123883  23.834  12.655   2.819 -0.2286  0.2721  0.0036
    1DIPC   GL223884  24.039  12.359   2.828  0.4497 -0.0099  0.1433
    1DIPC   C1A23885  23.715  12.607   3.288 -0.0347  0.2228  0.1573
    1DIPC   D2A23886  23.637  12.393   3.568  0.1771  0.0139 -0.2725
    1DIPC   D3A23887  23.838  12.613   3.901 -0.2678  0.0862  0.0210
    1DIPC   C4A23888  23.520  12.923   4.102 -0.0769 -0.0388 -0.2041
    1DIPC   C1B23889  24.204  12.535   3.189 -0.3000 -0.0231 -0.0662
    1DIPC   D2B23890  24.222  12.762   3.605 -0.2276 -0.3515 -0.0401
    1DIPC   D3B23891  24.781  12.782   3.769 -0.2577  0.0312  0.2157
    1DIPC   C4B23892  25.121  12.545   3.725 -0.0053  0.0450  0.0482
    1DIPC   NC323893   2.079   8.982   2.225 -0.0521  0.0860  0.2181
    1DIPC   PO423894   2.255   8.545   2.453  0.0698 -0.1582  0.2364
    1DIPC   GL123895   2.245   8.563   2.873  0.1284 -0.1308 -0.1688
    1DIPC   GL223896   2.576   8.712   3.001 -0.2789 -0.2041  0.0355
    1DIPC   C1A23897   2.106   8.359   3.244  0.0738  0.0298  0.1308
    1DIPC   D2A23898   1.940   8.613   3.610  0.2290  0.0201  0.0867
    1DIPC   D3A23899   1.932   8.587   4.182 -0.0855  0.0768 -0.0772
    1DIPC   C4A23900   1.637   8.404   4.273  0.1004  0.0043  0.0398
    1DIPC   C1B23901   2.413   8.711   3.409 -0.1363  0.6173  0.2335
    1DIPC   D2B23902   2.388   8.655   3.859  0.2631  0.0735 -0.0942
    1DIPC   D3B23903   2.074   9.007   3.999 -0.1774  0.2190 -0.3521
    1DIPC   C4B23904   1.753   9.003   4.341  0.2580 -0.0287 -0.0873
    1DIPC   NC323905  17.201   6.648   3.427 -0.0569 -0.0398  0.1721
    1DIPC   PO423906  17.583   6.863   3.364  0.0606  0.1344  0.3099
    1DIPC   GL123907  17.834   7.184   3.582  0.2162  0.0426 -0.1515
    1DIPC   GL223908  18.070   7.430   3.456 -0.3088 -0.4231 -0.1109
    1DIPC   C1A23909  17.706   7.519   3.819 -0.3316  0.1641 -0.0211
    1DIPC   D2A23910  17.650   7.927   3.993  0.1884  0.1821  0.1417
    1DIPC   D3A23911  17.323   8.080   4.120 -0.2230 -0.0121  0.1786
    1DIPC   C4A23912  17.348   7.849   4.489 -0.2902  0.1253  0.3116
    1DIPC   C1B23913  18.227   7.639   3.835 -0.0127  0.1334  0.0143
    1DIPC   D2B23914  18.129   7.997   4.124  0.2423  0.1586  0.0705
    1DIPC   D3B23915  18.397   8.016   4.478  0.4300 -0.0735 -0.0317
    1DIPC   C4B23916  18.259   7.940   4.904 -0.0412 -0.0377 -0.0188
    1DIPC   NC323917  25.099  30.087   3.154  0.1522  0.0378 -0.0233
    1DIPC   PO423918  24.735  30.275   3.219  0.2028 -0.0306  0.0862
    1DIPC   GL123919  24.890  30.602   3.459 -0.1625 -0.0948  0.1827
    1DIPC   GL223920  24.897  30.828   3.241 -0.1911  0.2749  0.2150
    1DIPC   C1A23921  24.719  30.852   3.745  0.2269 -0.0235 -0.0308
    1DIPC   D2A23922  24.821  30.841   4.189 -0.2136 -0.0746  0.0129
    1DIPC   D3A23923  24.916  31.090   4.468  0.0678 -0.1735 -0.0144
    1DIPC   C4A23924  24.696  31.053   4.840 -0.0401 -0.0884 -0.0658
    1DIPC   C1B23925  25.402  30.709   3.354 -0.0701  0.1665  0.0392
    1DIPC   D2B23926  25.838  30.785   3.229 -0.1331 -0.0524  0.0650
    1DIPC   D3B23927  25.935  31.033   3.578 -0.0961  0.0366  0.0172
    1DIPC   C4B23928  25.659  31.335   3.679 -0.1886  0.0489 -0.0863
    1DIPC   NC323929  20.196   6.470   3.157 -0.0142 -0.2203 -0.2395
    1DIPC   PO423930  19.850   6.415   3.452  0.1407 -0.1742 -0.1078
    1DIPC   GL123931  19.709   6.440   3.862  0.1684  0.1336  0.3443
    1DIPC   GL223932  19.522   6.112   3.929  0.0374 -0.0165 -0.1314
    1DIPC   C1A23933  19.944   6.267   4.227 -0.1476 -0.0174  0.0944
    1DIPC   D2A23934  19.888   5.843   4.419 -0.1345 -0.0604  0.1560
    1DIPC   D3A23935  19.810   6.099   4.759 -0.0066 -0.0955 -0.1848
    1DIPC   C4A23936  19.961   6.537   4.666  0.0951 -0.1944  0.1833
    1DIPC   C1B23937  19.347   5.860   4.197  0.3003 -0.0358  0.2161
    1DIPC   D2B23938  19.247   6.002   4.592 -0.1110 -0.1107 -0.0969
    1DIPC   D3B23939  19.332   6.017   5.074  0.3555 -0.0096 -0.1666
    1DIPC   C4B23940  19.791   5.867   5.190 -0.0525  0.1734  0.1554
    1DIPC   NC323941   0.157  22.628   1.468 -0.1286  0.0511 -0.0643
    1DIPC   PO423942  -0.071  22.552   1.820 -0.2415  0.0101 -0.1636
    1DIPC   GL123943  -0.110  22.401   2.260  0.1194  0.0368  0.1659
    1DIPC   GL223944  -0.372  22.353   2.345  0.1894  0.1489  0.0710
    1DIPC   C1A23945  -0.045  22.098   2.645  0.0937 -0.0646 -0.0543
    1DIPC   D2A23946   0.150  21.856   2.872 -0.0662 -0.1143 -0.0607
    1DIPC   D3A23947  -0.111  21.616   3.197  0.1683  0.2130 -0.0018
    1DIPC   C4A23948  -0.449  21.723   2.926  0.0969  0.2429  0.0612
    1DIPC   C1B23949  -0.422  22.393   2.802  0.0729 -0.3409 -0.4049
    1DIPC   D2B23950  -0.270  22.151   3.142 -0.5570 -0.4641 -0.2450
    1DIPC   D3B23951  -0.574  21.958   3.389 -0.0574 -0.2626 -0.0864
    1DIPC   C4B23952  -0.727  21.488   3.362 -0.0659  0.1588 -0.0302
    1DIPC   NC323953  10.774  28.730   2.761  0.0169 -0.2078  0.1345
    1DIPC   PO423954  10.946  28.488   3.171  0.2391 -0.1819 -0.1776
    1DIPC   GL123955  11.146  28.633   3.675  0.1590  0.2794  0.0056
    1DIPC   GL223956  11.483  28.579   3.754 -0.0626  0.2534  0.0970
    1DIPC   C1A23957  11.206  28.770   4.082  0.1432 -0.1840  0.1522
    1DIPC   D2A23958  11.082  28.647   4.538 -0.0267 -0.0997 -0.2318
    1DIPC   D3A23959  10.793  28.670   4.817  0.0931  0.2210  0.1433
    1DIPC   C4A23960  10.906  28.950   5.130  0.1533 -0.1548  0.1501
    1DIPC   C1B23961  11.769  28.545   4.023 -0.0452 -0.3371  0.1930
    1DIPC   D2B23962  12.013  28.440   4.440 -0.0268 -0.0124  0.0106
    1DIPC   D3B23963  12.493  28.469   4.473  0.1772 -0.0121  0.1021
    1DIPC   C4B23964  12.728  28.599   4.903  0.0545  0.1672  0.0395
    1DIPC   NC323965  22.096   0.867   2.843  0.0384  0.1058 -0.0153
    1DIPC   PO423966  22.212   1.297   2.769 -0.0456 -0.0048  0.3678
    1DIPC   GL123967  22.049   1.146   3.249  0.0060  0.2171 -0.0072
    1DIPC   GL223968  21.744   0.930   3.345 -0.1490 -0.2720 -0.0854
    1DIPC   C1A23969  22.157   1.077   3.687 -0.1459 -0.0818 -0.3435
    1DIPC   D2A23970  21.932   1.123   4.119  0.0165  0.1040  0.0405
    1DIPC   D3A23971  21.586   0.909   4.121 -0.1548 -0.2129 -0.3002
    1DIPC   C4A23972  21.386   0.867   3.657 -0.1132  0.0677 -0.3223
    1DIPC   C1B23973  21.960   0.605   3.555 -0.0631  0.0236 -0.1035
    1DIPC   D2B23974  22.051   0.642   3.922  0.1363  0.1786 -0.0658
    1DIPC   D3B23975  21.686   0.410   3.901  0.0787 -0.1063 -0.2531
    1DIPC   C4B23976  21.429   0.465   4.191  0.1235  0.2614 -0.1108
    1DIPC   NC323977  14.181  26.242   3.232 -0.1528  0.0111 -0.1035
    1DIPC   PO423978  14.644  26.335   3.302 -0.2103  0.2249  0.2304
    1DIPC   GL123979  14.338  26.434   3.697 -0.0393 -0.0422  0.0516
    1DIPC   GL223980  13.960  26.470   3.661  0.2883  0.1000 -0.2292
    1DIPC   C1A23981  13.980  26.258   4.108 -0.1950 -0.0613 -0.0467
    1DIPC   D2A23982  13.893  26.132   4.558  0.0298 -0.1296 -0.0397
    1DIPC   D3A23983  14.124  26.407   4.615  0.0435  0.1526  0.0883
    1DIPC   C4A23984  14.390  26.414   4.947  0.1021 -0.1519 -0.3094
    1DIPC   C1B23985  13.591  26.215   3.831 -0.0747  0.0040 -0.4392
    1DIPC   D2B23986  13.545  25.730   3.892 -0.1951  0.2332  0.1630
    1DIPC   D3B23987  13.926  25.636   4.022  0.2159 -0.1334 -0.3172
    1DIPC   C4B23988  14.263  25.922   3.743  0.0593 -0.1026 -0.2584
    1DIPC   NC323989  12.969   2.472   3.642  0.1956 -0.1320  0.2254
    1DIPC   PO423990  12.777   2.839   3.884 -0.3290  0.0383  0.0581
    1DIPC   GL123991  12.589   2.751   4.287  0.2828 -0.1936 -0.1156
    1DIPC   GL223992  12.858   2.633   4.576 -0.1334  0.0402  0.0798
    1DIPC   C1A23993  12.439   2.384   4.511 -0.0655 -0.0408 -0.0116
    1DIPC   D2A23994  12.552   2.125   4.869 -0.0499 -0.0712  0.1150
    1DIPC   D3A23995  12.248   1.957   4.985 -0.0737 -0.0261 -0.2050
    1DIPC   C4A23996  11.950   2.025   5.288  0.0366  0.2935 -0.0041
    1DIPC   C1B23997  13.008   2.594   5.075  0.0784  0.1968 -0.0069
    1DIPC   D2B23998  12.607   2.360   5.364 -0.1853  0.0089  0.0834
    1DIPC   D3B23999  12.951   2.592   5.588 -0.0050 -0.0198 -0.0575
    1DIPC   C4B24000  12.813   2.953   5.755 -0.0220 -0.2577 -0.0965
    1DIPC   NC324001  24.930   8.188   2.783  0.0729  0.0121  0.5171
    1DIPC   PO424002  24.547   8.227   2.652 -0.0607  0.0795  0.1484
    1DIPC   GL124003  24.212   8.268   2.964  0.2010 -0.0326 -0.2041
    1DIPC   GL224004  24.111   8.653   3.071 -0.0240  0.0189  0.3973
    1DIPC   C1A24005  24.212   8.114   3.409  0.0584 -0.3537 -0.1193
    1DIPC   D2A24006  24.136   8.132   3.860  0.1060  0.1894  0.0914
    1DIPC   D3A24007  24.326   8.043   4.283  0.1354 -0.1874 -0.2510
    1DIPC   C4A24008  24.435   8.192   4.718 -0.0600 -0.0643 -0.0759
    1DIPC   C1B24009  24.079   8.599   3.481 -0.3806  0.0233 -0.2236
    1DIPC   D2B24010  23.986   8.606   3.891  0.1778  0.1141 -0.0567
    1DIPC   D3B24011  23.924   8.924   4.109  0.0190 -0.0846  0.2203
    1DIPC   C4B24012  23.556   8.997   4.305  0.0441 -0.2039 -0.1736
    1DIPC   NC324013  30.025  17.794   0.952  0.0341  0.0456  0.0957
    1DIPC   PO424014  29.983  17.966   1.431 -0.1121  0.2086 -0.1895
    1DIPC   GL124015  30.101  18.116   1.795  0.1232  0.1010  0.1023
    1DIPC   GL224016  30.007  18.138   2.064  0.1953 -0.1553 -0.3195
    1DIPC   C1A24017  30.496  18.098   2.051  0.1048 -0.2458 -0.0420
    1DIPC   D2A24018  30.497  17.869   2.530 -0.2932 -0.0070  0.0779
    1DIPC   D3A24019  30.680  17.975   2.959  0.2541  0.0456  0.1044
    1DIPC   C4A24020  30.750  18.371   3.120 -0.0197  0.1547 -0.0058
    1DIPC   C1B24021  30.222  18.272   2.423 -0.2642 -0.5060  0.1826
    1DIPC   D2B24022  30.634  18.527   2.507  0.1253 -0.3886  0.4041
    1DIPC   D3B24023  30.489  18.764   2.765 -0.2383 -0.2036 -0.1270
    1DIPC   C4B24024  30.862  18.913   2.908  0.0363  0.0423 -0.0300
    1DIPC   NC324025   5.902   9.132   2.689  0.0108 -0.1342  0.3302
    1DIPC   PO424026   6.190   9.126   3.045 -0.1147 -0.1171  0.1536
    1DIPC   GL124027   6.290   9.320   3.381 -0.3031  0.2619 -0.2259
    1DIPC   GL224028   6.418   9.084   3.528 -0.0315 -0.1584 -0.3269
    1DIPC   C1A24029   6.175   9.420   3.781 -0.1722  0.1290 -0.0222
    1DIPC   D2A24030   5.928   9.374   3.911 -0.0878 -0.3294  0.2285
    1DIPC   D3A24031   5.711   9.437   4.290  0.4065  0.1519 -0.1012
    1DIPC   C4A24032   5.755   9.648   4.611 -0.1157 -0.2488 -0.2564
    1DIPC   C1B24033   6.664   9.396   3.784 -0.0800 -0.2178 -0.2981
    1DIPC   D2B24034   6.695   9.570   4.166  0.2113  0.1455 -0.1150
    1DIPC   D3B24035   7.047   9.326   4.448  0.0469  0.1332  0.0241
    1DIPC   C4B24036   7.380   9.680   4.644  0.0067 -0.1519 -0.1707
    1DIPC   NC324037   0.199   7.346   2.623  0.1729  0.0494  0.2994
    1DIPC   PO424038   0.163   7.419   3.010 -0.0793 -0.1810  0.2449
    1DIPC   GL124039  -0.164   7.486   3.232  0.0833  0.0427 -0.0737
    1DIPC   GL224040  -0.425   7.295   3.078  0.2398 -0.1627  0.0246
    1DIPC   C1A24041  -0.617   7.628   3.351 -0.0046 -0.3334  0.0024
    1DIPC   D2A24042  -1.109   7.529   3.299 -0.1507 -0.0748  0.0549
    1DIPC   D3A24043  -0.887   7.003   3.254  0.2016  0.1259 -0.1865
    1DIPC   C4A24044  -0.758   6.735   3.691 -0.0436 -0.1653 -0.0290
    1DIPC   C1B24045  -0.469   7.122   3.491  0.4253  0.1113  0.0684
    1DIPC   D2B24046  -0.492   7.328   3.915  0.2087 -0.1216 -0.1492
    1DIPC   D3B24047  -0.837   7.435   3.760 -0.1528 -0.2180 -0.2290
    1DIPC   C4B24048  -1.157   7.080   3.923 -0.4442 -0.2057 -0.1072
    1DIPC   NC324049  29.125  21.778   2.204  0.1574 -0.2056  0.0903
    1DIPC   PO424050  29.250  21.508   2.573  0.3309 -0.0752  0.1487
    1DIPC   GL124051  29.123  21.685   2.911  0.3805 -0.0025 -0.1680
    1DIPC   GL224052  28.985  21.909   2.749 -0.1111 -0.1621  0.1171
    1DIPC   C1A24053  28.939  21.623   3.330  0.0885 -0.2019  0.1568
    1DIPC   D2A24054  28.922  21.723   3.716 -0.2375 -0.0734  0.0407
    1DIPC   D3A24055  29.265  21.710   3.724  0.0103  0.0459  0.0841
    1DIPC   C4A24056  29.362  21.591   4.158  0.1449 -0.2029 -0.0394
    1DIPC   C1B24057  29.131  22.084   3.219  0.1825 -0.4818  0.2994
    1DIPC   D2B24058  29.221  22.272   3.663  0.0163 -0.1071 -0.3157
    1DIPC   D3B24059  28.852  22.201   3.804 -0.0271 -0.3760  0.0742
    1DIPC   C4B24060  28.427  22.017   3.718 -0.0062  0.0514 -0.0805
    1DIPC   NC324061   8.342   8.988   3.659 -0.1334  0.1488  0.1141
    1DIPC   PO424062   8.481   8.585   3.723  0.0828  0.0598  0.0105
    1DIPC   GL124063   8.477   8.685   4.162 -0.1130 -0.1953 -0.2364
    1DIPC   GL224064   8.599   8.991   4.229 -0.1502  0.1368 -0.1017
    1DIPC   C1A24065   8.488   8.349   4.516  0.1073  0.3167  0.2562
    1DIPC   D2A24066   8.694   8.043   4.742  0.0159 -0.2154  0.1625
    1DIPC   D3A24067   8.605   7.943   5.171 -0.0873  0.0259 -0.1540
    1DIPC   C4A24068   8.864   7.849   5.532  0.1435 -0.4353 -0.2584
    1DIPC   C1B24069   8.611   8.851   4.591  0.0473  0.1349 -0.0551
    1DIPC   D2B24070   8.584   9.037   5.053  0.0990  0.1253  0.2772
    1DIPC   D3B24071   8.330   8.844   5.286 -0.0833 -0.1528  0.1401
    1DIPC   C4B24072   8.618   8.785   5.677  0.3355 -0.6443  0.0350
    1DIPC   NC324073  19.740   1.946   3.041 -0.2172 -0.2139 -0.1949
    1DIPC   PO424074  19.300   2.131   2.901  0.1110 -0.1180  0.1587
    1DIPC   GL124075  19.400   2.129   3.370 -0.0716 -0.0674 -0.2384
    1DIPC   GL224076  19.615   2.344   3.371 -0.0663 -0.1123 -0.1385
    1DIPC   C1A24077  19.345   2.040   3.812  0.1378 -0.0060  0.1907
    1DIPC   D2A24078  19.384   1.823   4.187  0.2696 -0.2113  0.1006
    1DIPC   D3A24079  19.212   1.450   4.065 -0.2817  0.2378 -0.0982
    1DIPC   C4A24080  19.426   1.112   4.274 -0.2565 -0.1210  0.3003
    1DIPC   C1B24081  19.788   2.223   3.673 -0.1120 -0.1986  0.2054
    1DIPC   D2B24082  19.855   2.073   3.965 -0.4134  0.0523 -0.0923
    1DIPC   D3B24083  20.246   1.893   4.080  0.0320 -0.0366 -0.1095
    1DIPC   C4B24084  20.651   1.969   4.150  0.3555  0.1943 -0.0620
    1DIPC   NC324085  25.545   8.786   2.672  0.2032 -0.0216  0.0375
    1DIPC   PO424086  25.262   8.517   2.516 -0.1316 -0.0961 -0.2004
    1DIPC   GL124087  25.408   8.329   2.931  0.0430 -0.2040 -0.0958
    1DIPC   GL224088  25.183   8.361   3.135  0.1545  0.0624 -0.1255
    1DIPC   C1A24089  25.673   8.078   3.188  0.0650 -0.1447  0.0242
    1DIPC   D2A24090  25.774   7.748   3.555 -0.0839  0.3563 -0.0252
    1DIPC   D3A24091  26.211   7.974   3.757  0.1134  0.1259 -0.0422
    1DIPC   C4A24092  26.448   7.786   4.090  0.0474  0.2006 -0.3281
    1DIPC   C1B24093  25.401   8.379   3.493  0.3038  0.2203  0.0983
    1DIPC   D2B24094  25.651   8.665   3.724 -0.2401 -0.3045 -0.2937
    1DIPC   D3B24095  26.124   8.480   3.862  0.1136 -0.0651 -0.0616
    1DIPC   C4B24096  26.087   8.173   4.164 -0.0021  0.0349 -0.1571
    1DIPC   NC324097  19.036  25.840   3.210 -0.1425  0.1438 -0.2178
    1DIPC   PO424098  19.080  25.346   3.231  0.0226 -0.1689 -0.0155
    1DIPC   GL124099  19.174  25.351   3.719  0.2610  0.0420 -0.1202
    1DIPC   GL224100  19.491  25.468   3.704 -0.2136  0.0087  0.0884
    1DIPC   C1A24101  19.290  25.367   4.190  0.2783 -0.2147  0.2001
    1DIPC   D2A24102  19.211  25.249   4.562 -0.1025  0.1947 -0.0037
    1DIPC   D3A24103  18.868  24.970   4.626 -0.0034 -0.1119  0.0398
    1DIPC   C4A24104  18.946  24.576   4.698 -0.3264 -0.0411  0.0995
    1DIPC   C1B24105  19.633  25.664   3.962 -0.3444 -0.2297 -0.2075
    1DIPC   D2B24106  19.667  25.777   4.446  0.1731  0.0275 -0.3397
    1DIPC   D3B24107  19.741  25.590   4.771  0.2573  0.1271  0.1168
    1DIPC   C4B24108  20.019  25.707   5.102  0.0005  0.1977 -0.1209
    1DIPC   NC324109  27.738  29.070   3.072 -0.1639  0.3915 -0.3228
    1DIPC   PO424110  27.816  28.522   2.962 -0.1083 -0.1169 -0.0837
    1DIPC   GL124111  27.652  28.642   3.335 -0.1261  0.3266 -0.0107
    1DIPC   GL224112  27.295  28.832   3.280 -0.0096 -0.0819  0.1213
    1DIPC   C1A24113  27.538  28.641   3.680 -0.1487 -0.0491 -0.1188
    1DIPC   D2A24114  27.530  28.588   4.253 -0.2033 -0.2528 -0.2538
    1DIPC   D3A24115  27.670  28.439   4.645 -0.1449  0.0663  0.0655
    1DIPC   C4A24116  27.293  28.378   4.961 -0.0746  0.0496  0.2043
    1DIPC   C1B24117  27.043  28.622   3.526  0.2363  0.0629 -0.2697
    1DIPC   D2B24118  26.942  28.322   3.780 -0.0523  0.2010 -0.2797
    1DIPC   D3B24119  26.953  28.579   4.127  0.0282 -0.1397 -0.1879
    1DIPC   C4B24120  26.866  28.397   4.586  0.1749 -0.4614 -0.0002
    1DIPC   NC324121   3.407  26.377   1.984  0.1499 -0.0363 -0.0429
    1DIPC   PO424122   3.679  26.601   2.162 -0.1830 -0.0530 -0.2628
    1DIPC   GL124123   3.804  26.490   2.649 -0.1851 -0.1247  0.1441
    1DIPC   GL224124   3.895  26.262   2.507 -0.1210 -0.3710  0.2326
    1DIPC   C1A24125   3.995  26.395   3.123 -0.1542 -0.2008  0.1598
    1DIPC   D2A24126   4.194  26.211   3.543 -0.2002 -0.0750 -0.0540
    1DIPC   D3A24127   4.221  26.065   3.944  0.0753 -0.4191  0.2390
    1DIPC   C4A24128   3.993  25.862   4.261  0.0117 -0.0973 -0.1046
    1DIPC   C1B24129   3.933  26.036   2.793 -0.0469 -0.1336 -0.1479
    1DIPC   D2B24130   3.956  25.743   3.117 -0.0575 -0.3372 -0.0534
    1DIPC   D3B24131   3.657  25.639   3.308 -0.1701  0.0648  0.1390
    1DIPC   C4B24132   3.263  25.872   3.371 -0.0188  0.0651  0.0069
    1DIPC   NC324133  24.711  15.176   1.579  0.2702 -0.2144 -0.0161
    1DIPC   PO424134  24.305  15.091   1.802  0.2921  0.1223  0.6365
    1DIPC   GL124135  23.908  15.114   2.083  0.1036 -0.0699 -0.0863
    1DIPC   GL224136  24.099  14.990   2.349 -0.0520 -0.1724 -0.2524
    1DIPC   C1A24137  23.633  15.340   2.387  0.1456  0.0776 -0.1427
    1DIPC   D2A24138  23.556  15.431   2.818  0.1565  0.0521 -0.3052
    1DIPC   D3A24139  23.857  15.700   2.654  0.0891 -0.1404  0.2655
    1DIPC   C4A24140  24.129  15.801   2.334  0.1274 -0.2770 -0.1018
    1DIPC   C1B24141  24.046  15.233   2.777 -0.0993 -0.1300 -0.1068
    1DIPC   D2B24142  24.081  15.372   3.183 -0.1267 -0.1305 -0.1415
    1DIPC   D3B24143  23.975  15.833   3.148 -0.1236 -0.1850  0.0410
    1DIPC   C4B24144  23.632  16.010   3.374 -0.0512 -0.0161  0.0787
    1DIPC   NC324145  25.509  22.107   2.205 -0.0398  0.3372  0.1832
    1DIPC   PO424146  25.892  21.867   2.161 -0.0235 -0.0483  0.1267
    1DIPC   GL124147  26.106  21.908   2.599  0.0612  0.2103  0.0386
    1DIPC   GL224148  26.264  22.149   2.651 -0.2627 -0.0301 -0.1509
    1DIPC   C1A24149  26.065  21.671   2.926  0.2583 -0.1630  0.0204
    1DIPC   D2A24150  25.889  21.625   3.276  0.1061 -0.0000  0.0436
    1DIPC   D3A24151  26.186  21.835   3.494  0.1551 -0.1176 -0.3057
    1DIPC   C4A24152  26.209  22.322   3.480 -0.1951 -0.3465  0.0160
    1DIPC   C1B24153  26.044  22.217   3.038  0.1545 -0.0682  0.3898
    1DIPC   D2B24154  25.692  22.124   3.345 -0.2869 -0.1854  0.1440
    1DIPC   D3B24155  25.829  22.054   3.803 -0.0689 -0.3455  0.1890
    1DIPC   C4B24156  26.031  21.801   4.155  0.4753 -0.1770 -0.2337
    1DIPC   NC324157   8.685  18.666   2.576  0.1520  0.1764  0.2065
    1DIPC   PO424158   8.222  18.626   2.456  0.1253  0.0692 -0.1594
    1DIPC   GL124159   8.276  18.944   2.714 -0.1220  0.0889 -0.0809
    1DIPC   GL224160   8.392  18.809   3.039 -0.2662 -0.3770  0.0318
    1DIPC   C1A24161   7.889  19.066   3.106 -0.1404 -0.0679  0.0345
    1DIPC   D2A24162   7.572  19.265   3.434 -0.0029  0.0957  0.1880
    1DIPC   D3A24163   7.623  19.583   3.072 -0.1612  0.2318  0.0803
    1DIPC   C4A24164   7.290  19.807   2.906  0.1545  0.0254 -0.0247
    1DIPC   C1B24165   8.298  18.902   3.488  0.3322  0.0619 -0.1278
    1DIPC   D2B24166   8.038  19.022   3.669  0.2167  0.2361  0.0724
    1DIPC   D3B24167   7.763  19.056   4.017 -0.0409  0.2919 -0.2931
    1DIPC   C4B24168   7.936  19.211   4.402  0.2575  0.1359 -0.3350
    1DIPC   NC324169   4.182  22.402   1.282  0.0526  0.1216  0.0670
    1DIPC   PO424170   4.127  21.927   1.508 -0.0044 -0.1699  0.0892
    1DIPC   GL124171   3.819  21.852   1.790 -0.0711 -0.1550  0.4160
    1DIPC   GL224172   3.752  22.065   2.017  0.1423  0.0612 -0.2105
    1DIPC   C1A24173   3.825  21.454   2.105 -0.0653 -0.0598 -0.1715
    1DIPC   D2A24174   3.665  21.088   2.131  0.2061 -0.0187 -0.3348
    1DIPC   D3A24175   4.066  20.912   2.281 -0.3122 -0.0051 -0.0397
    1DIPC   C4A24176   4.440  21.101   2.204 -0.1169  0.2217 -0.1638
    1DIPC   C1B24177   3.957  21.834   2.417  0.0045 -0.0839 -0.1481
    1DIPC   D2B24178   3.749  21.536   2.693 -0.4899  0.1099  0.0009
    1DIPC   D3B24179   3.333  21.623   2.986  0.0078 -0.6181 -0.1655
    1DIPC   C4B24180   3.521  21.751   3.320 -0.1835 -0.1778  0.4679
    1DIPC   NC324181   1.723  23.848   1.789  0.1785 -0.2163 -0.0044
    1DIPC   PO424182   1.795  24.162   2.104 -0.2858  0.1088  0.0286
    1DIPC   GL124183   1.849  24.192   2.561 -0.0044 -0.1176  0.3119
    1DIPC   GL224184   2.075  24.420   2.648 -0.3161  0.2008  0.1668
    1DIPC   C1A24185   1.915  24.148   3.047  0.2532  0.0118 -0.1004
    1DIPC   D2A24186   2.199  24.132   3.417  0.3763  0.2550  0.2382
    1DIPC   D3A24187   2.394  24.470   3.232  0.0261 -0.0780  0.1000
    1DIPC   C4A24188   2.398  24.762   2.938 -0.1266  0.2235  0.0894
    1DIPC   C1B24189   1.958  24.629   3.074 -0.2580  0.4162  0.0350
    1DIPC   D2B24190   2.033  24.674   3.605  0.0385 -0.1131  0.2128
    1DIPC   D3B24191   1.750  24.622   3.942  0.3191 -0.0291 -0.1158
    1DIPC   C4B24192   1.619  24.921   4.142 -0.1312  0.2578  0.1458
    1DIPC   NC324193   1.725  29.961   3.177  0.3552  0.0072  0.2949
    1DIPC   PO424194   1.834  29.608   3.310  0.0678  0.0580  0.2937
    1DIPC   GL124195   1.638  29.811   3.647 -0.2384  0.0956 -0.0039
    1DIPC   GL224196   1.292  29.917   3.551  0.2003 -0.1254 -0.0818
    1DIPC   C1A24197   1.638  29.887   4.050  0.3235 -0.0663 -0.2702
    1DIPC   D2A24198   1.928  29.938   4.463 -0.3556  0.0887 -0.1290
    1DIPC   D3A24199   2.150  29.722   4.155 -0.0767 -0.0892 -0.1642
    1DIPC   C4A24200   2.235  29.332   4.273  0.2099 -0.0005 -0.1863
    1DIPC   C1B24201   1.188  29.636   3.908 -0.2260 -0.1058 -0.0055
    1DIPC   D2B24202   1.533  29.423   3.950 -0.1619  0.1094  0.0608
    1DIPC   D3B24203   1.695  29.464   4.343  0.1966  0.1126  0.1657
    1DIPC   C4B24204   1.480  29.774   4.674  0.0572 -0.1068  0.1353
    1DIPC   NC324205  13.917  29.247   3.020 -0.3024  0.1313 -0.0969
    1DIPC   PO424206  13.872  29.077   3.471  0.1618  0.2379 -0.1644
    1DIPC   GL124207  13.759  29.125   3.902 -0.1957  0.1835  0.0101
    1DIPC   GL224208  13.760  28.770   3.978  0.1387  0.0152 -0.0558
    1DIPC   C1A24209  13.710  29.170   4.344  0.0125  0.1673  0.1329
    1DIPC   D2A24210  13.444  29.111   4.719 -0.0308 -0.3657 -0.0155
    1DIPC   D3A24211  13.058  29.143   4.698 -0.0796  0.0257 -0.0052
    1DIPC   C4A24212  12.844  29.100   5.046  0.1852 -0.1857 -0.5271
    1DIPC   C1B24213  13.727  28.386   4.138  0.0483 -0.2310  0.3442
    1DIPC   D2B24214  14.059  28.171   4.452 -0.0617 -0.0105  0.1311
    1DIPC   D3B24215  14.283  28.602   4.227  0.4346 -0.1500 -0.2115
    1DIPC   C4B24216  14.446  28.946   4.537 -0.1859 -0.0585 -0.0609
    1DIPC   NC324217  16.090   0.858   3.319  0.1794  0.0207 -0.1297
    1DIPC   PO424218  16.583   0.838   3.405 -0.0714 -0.1927  0.0385
    1DIPC   GL124219  16.329   1.084   3.661 -0.2563  0.2968  0.1784
    1DIPC   GL224220  16.409   1.049   3.968 -0.0193 -0.1532  0.3507
    1DIPC   C1A24221  15.999   1.417   3.845 -0.0545  0.0875 -0.2000
    1DIPC   D2A24222  15.744   1.711   3.932 -0.0134  0.0166 -0.2959
    1DIPC   D3A24223  15.879   1.713   4.490 -0.0666 -0.1030 -0.2997
    1DIPC   C4A24224  15.892   1.441   4.872  0.0968 -0.1626 -0.2180
    1DIPC   C1B24225  16.695   0.705   4.151  0.1017  0.0167 -0.0343
    1DIPC   D2B24226  17.219   0.573   4.193 -0.0845  0.5321  0.0745
    1DIPC   D3B24227  17.350   0.923   4.200  0.1035 -0.1988 -0.0873
    1DIPC   C4B24228  17.565   1.063   4.569 -0.3389  0.1112 -0.1383
    1DIPC   NC324229   6.289   4.161   3.333 -0.2255  0.0715 -0.2795
    1DIPC   PO424230   6.691   4.142   3.154 -0.2531 -0.0044 -0.1874
    1DIPC   GL124231   6.716   4.349   3.479  0.1844 -0.1942  0.0162
    1DIPC   GL224232   6.435   4.526   3.679  0.0999  0.0415  0.0755
    1DIPC   C1A24233   7.011   4.375   3.795 -0.5208 -0.0228 -0.1171
    1DIPC   D2A24234   7.165   4.460   4.278 -0.0654 -0.0794 -0.0117
    1DIPC   D3A24235   6.946   4.837   4.154  0.0892  0.0176 -0.5073
    1DIPC   C4A24236   6.896   4.851   3.773  0.2721 -0.0162  0.0624
    1DIPC   C1B24237   6.434   4.520   4.135  0.0011 -0.3462  0.2461
    1DIPC   D2B24238   6.479   4.445   4.661 -0.0923  0.0051 -0.2629
    1DIPC   D3B24239   6.588   4.853   4.561 -0.0942 -0.1750 -0.3059
    1DIPC   C4B24240   6.908   5.042   4.833  0.2080  0.1437  0.0568
    1DIPC   NC324241  23.640   1.474   2.794 -0.1862 -0.2448 -0.0051
    1DIPC   PO424242  23.683   1.808   3.092 -0.1381  0.1863  0.2823
    1DIPC   GL124243  23.707   1.581   3.391 -0.0763  0.1203  0.1713
    1DIPC   GL224244  23.828   1.824   3.602  0.1364 -0.2151 -0.0634
    1DIPC   C1A24245  23.412   1.283   3.572 -0.1019  0.0698 -0.1990
    1DIPC   D2A24246  23.459   0.954   3.853  0.0682 -0.1288 -0.2707
    1DIPC   D3A24247  23.813   0.962   4.051  0.1327  0.0706 -0.2863
    1DIPC   C4A24248  23.936   0.645   3.804 -0.1160  0.2591 -0.0571
    1DIPC   C1B24249  24.089   1.869   3.999 -0.0788 -0.2783  0.2000
    1DIPC   D2B24250  24.363   2.178   4.164 -0.2056  0.1286  0.0667
    1DIPC   D3B24251  24.218   2.342   4.559  0.1804 -0.2858 -0.0927
    1DIPC   C4B24252  24.605   2.276   4.909  0.2072 -0.1259  0.0203
    1DIPC   NC324253  16.116   0.379   3.312  0.1884 -0.0797  0.3002
    1DIPC   PO424254  16.222   0.593   3.702 -0.2487 -0.1257 -0.0298
    1DIPC   GL124255  16.255   0.511   4.067  0.0583  0.0469 -0.4727
    1DIPC   GL224256  16.430   0.270   4.151  0.2754  0.4236  0.0177
    1DIPC   C1A24257  16.119   0.724   4.431  0.0179  0.3266  0.2554
    1DIPC   D2A24258  16.080   0.809   4.872 -0.1176  0.1327  0.0230
    1DIPC   D3A24259  16.299   1.124   4.982 -0.1122  0.0325 -0.0397
    1DIPC   C4A24260  16.702   1.194   5.050  0.0564  0.0112  0.0209
    1DIPC   C1B24261  16.304   0.313   4.532 -0.2228  0.0867 -0.1907
    1DIPC   D2B24262  16.507   0.488   4.819 -0.5494 -0.1245 -0.2503
    1DIPC   D3B24263  16.839   0.758   4.862 -0.1298 -0.0085  0.1941
    1DIPC   C4B24264  17.041   0.816   4.588 -0.0988 -0.0848 -0.1468
    1DIPC   NC324265   5.643  25.858   1.628  0.2705  0.0803  0.1166
    1DIPC   PO424266   5.751  25.612   2.091 -0.0899  0.0986  0.1283
    1DIPC   GL124267   5.896  25.467   2.456 -0.2169 -0.1154  0.0504
    1DIPC   GL224268   5.983  25.690   2.691  0.0165 -0.2756 -0.1489
    1DIPC   C1A24269   5.838  25.161   2.770  0.2023 -0.2333 -0.1403
    1DIPC   D2A24270   5.821  24.838   3.078  0.0127 -0.0634 -0.2396
    1DIPC   D3A24271   6.022  24.503   2.926  0.4936  0.1624 -0.3119
    1DIPC   C4A24272   6.190  24.259   3.332 -0.1188  0.2121  0.1059
    1DIPC   C1B24273   6.085  25.432   3.099  0.0609 -0.1436 -0.0027
    1DIPC   D2B24274   6.328  25.151   3.394  0.0666  0.2070  0.0903
    1DIPC   D3B24275   6.735  25.337   3.434 -0.0768 -0.0310  0.0566
    1DIPC   C4B24276   6.814  25.668   3.794 -0.1360  0.2670  0.4093
    1DIPC   NC324277   0.090  29.859   3.282  0.1759 -0.1468 -0.2219
    1DIPC   PO424278   0.427  29.659   3.158  0.1080  0.3232  0.0898
    1DIPC   GL124279   0.470  29.572   3.663  0.0855  0.1691 -0.0525
    1DIPC   GL224280   0.689  29.400   3.785 -0.0316  0.1218  0.0747
    1DIPC   C1A24281   0.313  29.616   4.087 -0.1157  0.1874 -0.1645
    1DIPC   D2A24282   0.104  29.613   4.442  0.0169  0.2969 -0.3866
    1DIPC   D3A24283  -0.122  29.385   4.783 -0.1522 -0.0444  0.1238
    1DIPC   C4A24284   0.134  29.116   5.078 -0.1494 -0.0502  0.1142
    1DIPC   C1B24285   0.853  29.346   4.163  0.3842  0.0144 -0.0620
    1DIPC   D2B24286   1.094  29.671   4.367 -0.1719 -0.1871 -0.0912
    1DIPC   D3B24287   1.304  29.224   4.464  0.4106  0.1843 -0.2367
    1DIPC   C4B24288   1.435  28.906   4.278  0.0068 -0.1445 -0.2414
    1DIPC   NC324289  29.212  19.633   1.935 -0.0240  0.0011 -0.0053
    1DIPC   PO424290  29.405  19.840   2.347 -0.1119 -0.1243 -0.0700
    1DIPC   GL124291  29.368  19.679   2.789 -0.1277  0.2527  0.1439
    1DIPC   GL224292  29.328  19.414   2.849  0.0928  0.1528 -0.3739
    1DIPC   C1A24293  29.326  19.455   3.314  0.1359 -0.0126  0.0273
    1DIPC   D2A24294  29.445  19.017   3.384  0.0168 -0.2650 -0.0132
    1DIPC   D3A24295  29.793  19.057   3.665  0.0164  0.1670  0.2256
    1DIPC   C4A24296  30.091  18.799   3.565 -0.2309 -0.2281 -0.5079
    1DIPC   C1B24297  29.094  19.112   3.040  0.4124 -0.3274  0.0125
    1DIPC   D2B24298  28.682  18.883   2.835  0.1298 -0.0905  0.0150
    1DIPC   D3B24299  28.402  18.635   3.100 -0.1065 -0.0448  0.2375
    1DIPC   C4B24300  28.605  18.501   3.485 -0.1908  0.0666 -0.0848
    1DIPC   NC324301  12.480  24.357   2.383  0.1100  0.1336  0.2857
    1DIPC   PO424302  12.635  24.284   2.812 -0.2672 -0.0679 -0.1888
    1DIPC   GL124303  12.610  24.099   3.289 -0.0565  0.0690  0.2258
    1DIPC   GL224304  12.575  23.761   3.318  0.3212  0.3429 -0.2796
    1DIPC   C1A24305  12.994  23.972   3.670  0.1305 -0.3689  0.1362
    1DIPC   D2A24306  13.033  23.919   4.119 -0.0323 -0.2958 -0.2280
    1DIPC   D3A24307  13.083  23.596   4.368 -0.0968  0.3808 -0.0192
    1DIPC   C4A24308  13.313  23.822   4.614 -0.4123  0.0758 -0.0941
    1DIPC   C1B24309  12.497  23.815   3.784  0.0353  0.2218  0.0901
    1DIPC   D2B24310  12.291  23.938   4.104 -0.1941  0.3050  0.0247
    1DIPC   D3B24311  11.946  24.123   3.959  0.2281 -0.1771  0.1826
    1DIPC   C4B24312  11.477  24.093   4.071 -0.0941 -0.0739 -0.1173
    1DIPC   NC324313   4.746  29.909   4.135 -0.2477 -0.1459  0.0263
    1DIPC   PO424314   4.424  30.213   4.100  0.0108 -0.3199 -0.1785
    1DIPC   GL124315   4.427  30.402   4.449 -0.0373  0.1603 -0.0772
    1DIPC   GL224316   4.409  30.818   4.543  0.0198  0.1872 -0.1634
    1DIPC   C1A24317   4.582  30.363   4.889  0.0854 -0.1767 -0.1095
    1DIPC   D2A24318   4.717  30.396   5.306 -0.0042 -0.1278 -0.1987
    1DIPC   D3A24319   4.873  30.034   5.545  0.0004  0.1694  0.0749
    1DIPC   C4A24320   4.567  29.665   5.781 -0.0097 -0.2622  0.1345
    1DIPC   C1B24321   4.372  31.338   4.650  0.2533 -0.0457  0.0704
    1DIPC   D2B24322   4.205  31.733   4.794  0.1366 -0.0312 -0.1657
    1DIPC   D3B24323   4.364  31.651   5.162  0.0297  0.0645  0.2715
    1DIPC   C4B24324   4.257  31.352   5.433  0.0476  0.0334 -0.1298
    1DIPC   NC324325  22.172  22.932   2.529 -0.1967 -0.1124 -0.2426
    1DIPC   PO424326  21.742  23.143   2.783  0.1176 -0.1989  0.1958
    1DIPC   GL124327  21.667  23.190   3.250  0.0824  0.1214  0.0455
    1DIPC   GL224328  21.993  23.400   3.467  0.3076  0.3853 -0.1025
    1DIPC   C1A24329  21.580  23.188   3.715  0.6375 -0.1266  0.2670
    1DIPC   D2A24330  21.345  23.306   4.096 -0.3484  0.1813  0.3339
    1DIPC   D3A24331  21.174  23.497   4.506  0.1510 -0.0352  0.2167
    1DIPC   C4A24332  20.807  23.429   4.591  0.0343  0.1199 -0.1184
    1DIPC   C1B24333  22.156  23.016   3.637 -0.0196 -0.2580  0.4747
    1DIPC   D2B24334  22.264  22.612   3.361 -0.1478  0.0129 -0.0294
    1DIPC   D3B24335  22.615  22.510   3.277  0.3591 -0.0246  0.0653
    1DIPC   C4B24336  22.665  22.075   3.319 -0.2620 -0.1669  0.1951
    1DIPC   NC324337  15.796  25.147   2.961  0.3092  0.0249 -0.0571
    1DIPC   PO424338  15.842  25.556   3.012  0.2090 -0.0864  0.0089
    1DIPC   GL124339  15.586  25.617   3.382  0.2877  0.1695 -0.0001
    1DIPC   GL224340  15.355  25.848   3.423  0.0929 -0.2560 -0.1685
    1DIPC   C1A24341  15.597  25.379   3.783  0.5537  0.1670 -0.0899
    1DIPC   D2A24342  15.410  25.012   4.006 -0.0692  0.0620  0.1833
    1DIPC   D3A24343  15.517  24.786   4.330  0.2718  0.1352 -0.0535
    1DIPC   C4A24344  15.602  25.082   4.632 -0.0599  0.0847 -0.0011
    1DIPC   C1B24345  15.216  25.675   3.734 -0.1786 -0.1612 -0.1085
    1DIPC   D2B24346  15.305  25.481   4.155 -0.1231 -0.4777 -0.0367
    1DIPC   D3B24347  15.583  25.562   4.534  0.0715 -0.1341  0.1798
    1DIPC   C4B24348  15.895  25.737   4.302 -0.0137  0.0082 -0.2785
    1DIPC   NC324349   1.974  15.390   1.630  0.0401  0.3555 -0.0357
    1DIPC   PO424350   2.268  15.241   1.867 -0.1288  0.0118  0.0976
    1DIPC   GL124351   2.107  14.844   2.093 -0.0044  0.0833  0.2119
    1DIPC   GL224352   2.011  15.000   2.352 -0.1465 -0.2361  0.1033
    1DIPC   C1A24353   1.943  14.550   2.315 -0.3204 -0.0632  0.0153
    1DIPC   D2A24354   2.097  14.425   2.761 -0.0528 -0.2500  0.0594
    1DIPC   D3A24355   1.975  14.104   2.952  0.0425 -0.0128 -0.0018
    1DIPC   C4A24356   1.954  14.079   3.330 -0.2958 -0.0275  0.0612
    1DIPC   C1B24357   1.643  15.269   2.591 -0.0779  0.4749  0.0094
    1DIPC   D2B24358   1.722  15.641   2.842 -0.4746  0.4062  0.2071
    1DIPC   D3B24359   2.016  15.679   2.523  0.3833  0.2367 -0.1756
    1DIPC   C4B24360   2.046  16.020   2.366  0.0991 -0.1334  0.0423
    1DIPC   NC324361  22.065  19.791   2.443 -0.0257 -0.0122 -0.0568
    1DIPC   PO424362  21.935  20.179   2.442 -0.0284  0.2982  0.3158
    1DIPC   GL124363  22.251  20.155   2.744 -0.0397 -0.1785  0.4161
    1DIPC   GL224364  22.336  20.448   2.777  0.1075  0.0179 -0.0861
    1DIPC   C1A24365  22.468  20.088   3.155  0.1857  0.2159  0.0811
    1DIPC   D2A24366  22.874  20.246   3.343 -0.2029 -0.0746  0.0278
    1DIPC   D3A24367  22.896  19.910   3.677 -0.1254 -0.0634 -0.0518
    1DIPC   C4A24368  23.011  19.891   3.995  0.3447 -0.0845  0.0327
    1DIPC   C1B24369  22.299  20.546   3.198  0.0422  0.2969 -0.0685
    1DIPC   D2B24370  22.122  20.496   3.589 -0.3410 -0.2221  0.1498
    1DIPC   D3B24371  21.752  20.567   3.850  0.0588 -0.0971 -0.0762
    1DIPC   C4B24372  21.489  20.834   3.657 -0.0343  0.0920 -0.0685
    1DIPC   NC324373   0.680  27.042   2.953 -0.0245  0.0342  0.0749
    1DIPC   PO424374   0.416  26.826   3.203  0.2100 -0.2395  0.0617
    1DIPC   GL124375   0.775  26.451   3.404 -0.0158 -0.0447  0.0385
    1DIPC   GL224376   0.586  26.461   3.631  0.1946 -0.1471  0.0411
    1DIPC   C1A24377   1.158  26.345   3.649 -0.2176  0.1441 -0.0622
    1DIPC   D2A24378   1.325  25.910   3.705 -0.0803  0.1100 -0.0366
    1DIPC   D3A24379   1.663  25.901   3.970  0.1544  0.3029  0.3215
    1DIPC   C4A24380   1.711  25.636   4.264  0.0243  0.0507 -0.2128
    1DIPC   C1B24381   0.451  26.295   4.042  0.0040 -0.0554  0.0035
    1DIPC   D2B24382   0.328  26.003   4.245 -0.1069 -0.1732  0.2477
    1DIPC   D3B24383   0.282  25.561   4.291 -0.0966  0.0533  0.0892
    1DIPC   C4B24384   0.570  25.316   4.345  0.2941  0.0284  0.1076
    1DIPC   NC324385   4.070  30.121   3.605  0.1096 -0.2299  0.0312
    1DIPC   PO424386   3.756  30.463   3.624  0.2155 -0.3186  0.2181
    1DIPC   GL124387   3.421  30.580   3.879 -0.3160 -0.0908  0.0717
    1DIPC   GL224388   3.193  30.803   3.922  0.1651  0.0064 -0.1976
    1DIPC   C1A24389   3.498  30.564   4.389 -0.0423  0.2627  0.0316
    1DIPC   D2A24390   3.805  30.600   4.755 -0.2356 -0.2760  0.1894
    1DIPC   D3A24391   3.978  30.206   5.036  0.3925 -0.2457 -0.0108
    1DIPC   C4A24392   4.367  30.036   5.293  0.3191 -0.0402  0.2078
    1DIPC   C1B24393   3.039  30.800   4.313  0.0204  0.1680 -0.0137
    1DIPC   D2B24394   2.887  30.805   4.685 -0.1872  0.0207 -0.1881
    1DIPC   D3B24395   3.275  30.680   4.932  0.1297  0.0385  0.1070
    1DIPC   C4B24396   3.453  30.998   4.626  0.0781  0.0511  0.1410
    1DIPC   NC324397   0.818  20.495   2.013  0.5049 -0.0671 -0.0306
    1DIPC   PO424398   0.426  20.318   2.096  0.1886 -0.2611 -0.2861
    1DIPC   GL124399   0.493  20.597   2.415  0.1984  0.2931 -0.0430
    1DIPC   GL224400   0.330  20.522   2.722 -0.1739  0.0932 -0.0438
    1DIPC   C1A24401   0.804  20.787   2.753  0.1406 -0.0870 -0.0398
    1DIPC   D2A24402   0.782  21.110   3.076 -0.0923 -0.0140  0.2144
    1DIPC   D3A24403   1.064  20.851   3.335  0.2946 -0.1292 -0.0876
    1DIPC   C4A24404   0.993  20.414   3.210  0.2698  0.0041 -0.2305
    1DIPC   C1B24405   0.487  20.668   3.184  0.0898  0.0271  0.1682
    1DIPC   D2B24406   0.699  20.626   3.601 -0.0991  0.0678 -0.0034
    1DIPC   D3B24407   0.501  21.083   3.577 -0.1257 -0.1607  0.0326
    1DIPC   C4B24408   0.235  21.152   3.216 -0.0012 -0.1890  0.0629
    1DIPC   NC324409  26.408  26.578   3.042 -0.2942  0.2941 -0.0756
    1DIPC   PO424410  25.988  26.514   2.889  0.0902  0.0600 -0.2000
    1DIPC   GL124411  25.881  26.611   3.289 -0.4421 -0.1379  0.0288
    1DIPC   GL224412  25.556  26.357   3.316  0.2187 -0.2848  0.3098
    1DIPC   C1A24413  25.801  26.753   3.737  0.2977  0.2571 -0.3870
    1DIPC   D2A24414  25.865  26.747   4.267  0.1262  0.0798  0.0079
    1DIPC   D3A24415  25.501  26.798   4.527  0.2165  0.2877 -0.2287
    1DIPC   C4A24416  25.641  26.896   4.874 -0.0783 -0.2078 -0.1732
    1DIPC   C1B24417  25.726  26.237   3.780 -0.0297  0.3327 -0.0336
    1DIPC   D2B24418  25.778  26.231   4.282  0.1894 -0.1262 -0.3018
    1DIPC   D3B24419  25.711  26.311   4.731 -0.0984  0.2192 -0.0874
    1DIPC   C4B24420  25.506  26.327   5.102 -0.1379 -0.1167 -0.0664
    1DIPC   NC324421  19.080  24.987   2.403  0.0225 -0.2297 -0.0662
    1DIPC   PO424422  19.032  24.669   2.724  0.1276 -0.1311  0.1835
    1DIPC   GL124423  18.919  24.585   3.160  0.2212  0.0043 -0.1295
    1DIPC   GL224424  18.774  24.265   3.357 -0.0842 -0.1017 -0.0680
    1DIPC   C1A24425  18.880  24.679   3.614  0.1916 -0.3264  0.0359
    1DIPC   D2A24426  18.649  24.912   3.830  0.1226  0.1138  0.0688
    1DIPC   D3A24427  18.830  25.085   4.126  0.2136 -0.2624 -0.0485
    1DIPC   C4A24428  18.826  25.473   4.183  0.1065  0.0493  0.1440
    1DIPC   C1B24429  18.990  24.218   3.737 -0.0738  0.2277  0.4500
    1DIPC   D2B24430  18.952  24.482   4.065 -0.0674  0.2736 -0.4300
    1DIPC   D3B24431  19.306  24.382   4.438 -0.1355  0.2980  0.0194
    1DIPC   C4B24432  19.610  24.228   4.526  0.1368  0.2166 -0.1167
    1DIPC   NC324433  22.063   2.487   3.051  0.0847  0.1278  0.2997
    1DIPC   PO424434  22.500   2.682   2.934 -0.2399 -0.2560 -0.1115
    1DIPC   GL124435  22.654   2.969   3.292 -0.0660  0.1987 -0.2093
    1DIPC   GL224436  22.903   2.805   3.274 -0.0780 -0.2150  0.1633
    1DIPC   C1A24437  22.367   3.115   3.665 -0.1169 -0.1636 -0.2723
    1DIPC   D2A24438  22.317   3.477   4.037 -0.2021  0.2555 -0.0829
    1DIPC   D3A24439  22.518   3.297   4.373  0.2093 -0.1270  0.4653
    1DIPC   C4A24440  22.590   3.525   4.698  0.2959  0.2334 -0.0461
    1DIPC   C1B24441  23.003   2.843   3.654 -0.0451 -0.2217  0.0935
    1DIPC   D2B24442  23.026   2.895   4.028 -0.0700 -0.0176 -0.0091
    1DIPC   D3B24443  22.977   2.909   4.426  0.1788  0.2265  0.1226
    1DIPC   C4B24444  22.914   3.134   4.710  0.3381 -0.4032  0.1035
    1DIPC   NC324445   2.129   3.884   2.994  0.0292 -0.2789 -0.1953
    1DIPC   PO424446   2.208   4.198   3.278 -0.0227 -0.0858 -0.2466
    1DIPC   GL124447   2.213   4.422   3.672 -0.0217 -0.0971 -0.1885
    1DIPC   GL224448   2.527   4.471   3.722 -0.2287  0.2628 -0.3432
    1DIPC   C1A24449   1.823   4.369   3.943 -0.4003  0.0117 -0.1689
    1DIPC   D2A24450   1.744   3.995   3.905  0.0800 -0.1977 -0.0634
    1DIPC   D3A24451   1.319   3.772   3.730 -0.0944  0.0109 -0.2515
    1DIPC   C4A24452   0.898   3.755   3.844 -0.0111  0.0319 -0.0062
    1DIPC   C1B24453   2.791   4.263   3.992  0.3215  0.2230 -0.3628
    1DIPC   D2B24454   3.064   4.235   4.305 -0.1573  0.1986  0.2038
    1DIPC   D3B24455   2.797   4.584   4.372  0.4942 -0.3026 -0.0539
    1DIPC   C4B24456   2.954   4.944   4.255 -0.1321  0.0991  0.0404
    1DIPC   NC324457   6.334  23.398   2.182  0.1073 -0.2529  0.0902
    1DIPC   PO424458   6.533  23.922   2.121 -0.0013  0.0601 -0.0409
    1DIPC   GL124459   6.415  24.041   2.484 -0.1321 -0.2375 -0.3048
    1DIPC   GL224460   6.166  24.234   2.351  0.1155 -0.1068 -0.0986
    1DIPC   C1A24461   6.584  24.121   2.951 -0.0485  0.1731  0.4644
    1DIPC   D2A24462   6.511  23.839   3.279 -0.0011 -0.3227  0.2285
    1DIPC   D3A24463   6.797  23.731   3.587 -0.0437  0.0666 -0.0000
    1DIPC   C4A24464   7.182  23.691   3.613  0.2124 -0.1448 -0.3784
    1DIPC   C1B24465   5.839  24.330   2.536 -0.0990 -0.0111  0.1057
    1DIPC   D2B24466   5.521  24.582   2.671 -0.2388  0.1114  0.2340
    1DIPC   D3B24467   5.302  24.387   3.033  0.0913 -0.1303 -0.0062
    1DIPC   C4B24468   5.422  23.999   3.437  0.2547  0.0424  0.2652
    1DIPC   NC324469  12.745   7.645   3.811  0.1876  0.1323 -0.2072
    1DIPC   PO424470  12.382   7.814   3.801 -0.1924  0.0033  0.0830
    1DIPC   GL124471  12.606   8.025   4.130  0.2128  0.0612  0.0626
    1DIPC   GL224472  12.409   8.025   4.337  0.1558  0.0283  0.3968
    1DIPC   C1A24473  12.867   8.115   4.477  0.1044  0.0636 -0.0275
    1DIPC   D2A24474  12.946   8.308   4.904  0.0409 -0.1551  0.2545
    1DIPC   D3A24475  12.898   8.100   5.241 -0.3624 -0.0971  0.0226
    1DIPC   C4A24476  12.599   7.790   5.096 -0.0647 -0.1770  0.0178
    1DIPC   C1B24477  12.464   8.261   4.722 -0.0737  0.2829  0.0452
    1DIPC   D2B24478  12.547   8.525   5.100 -0.0564  0.2664  0.1869
    1DIPC   D3B24479  12.426   8.206   5.246 -0.1733 -0.0180 -0.1047
    1DIPC   C4B24480  12.078   8.205   5.614 -0.0441  0.1037  0.3408
    1DIPC   NC324481  29.098  28.522   2.929 -0.1303  0.2437 -0.0984
    1DIPC   PO424482  28.932  28.171   3.213 -0.1338 -0.4878  0.0107
    1DIPC   GL124483  28.915  27.925   3.578 -0.0358  0.1170 -0.2460
    1DIPC   GL224484  29.154  27.633   3.390  0.0355  0.0191  0.1683
    1DIPC   C1A24485  28.802  27.757   3.988 -0.1043  0.3102  0.1378
    1DIPC   D2A24486  28.796  27.727   4.385  0.0176 -0.2172  0.0576
    1DIPC   D3A24487  28.993  28.052   4.409 -0.0817  0.0602 -0.0441
    1DIPC   C4A24488  29.138  28.179   3.975 -0.0194 -0.0199  0.0617
    1DIPC   C1B24489  29.223  27.422   3.752  0.1359  0.0405  0.1401
    1DIPC   D2B24490  29.172  27.423   4.136 -0.0411  0.0509 -0.0675
    1DIPC   D3B24491  29.552  27.146   4.084 -0.0581 -0.0075 -0.1753
    1DIPC   C4B24492  29.707  26.807   4.440 -0.0029  0.0484  0.0737
    1DIPC   NC324493   6.947  13.582   3.158  0.1700 -0.2118 -0.0586
    1DIPC   PO424494   7.273  13.650   3.089 -0.2972 -0.0365  0.0612
    1DIPC   GL124495   7.146  13.925   3.523 -0.2395 -0.1614 -0.1600
    1DIPC   GL224496   7.154  14.287   3.427  0.0296 -0.0487 -0.1729
    1DIPC   C1A24497   7.285  13.989   3.920  0.4268 -0.0346 -0.0779
    1DIPC   D2A24498   7.223  14.330   4.233 -0.0476  0.1062 -0.1875
    1DIPC   D3A24499   7.575  14.489   4.449 -0.0338  0.0266 -0.0246
    1DIPC   C4A24500   7.964  14.266   4.768  0.0016 -0.0853  0.1904
    1DIPC   C1B24501   6.951  14.346   3.783 -0.2122 -0.3932  0.0933
    1DIPC   D2B24502   6.926  14.729   4.049 -0.0331 -0.1152 -0.0094
    1DIPC   D3B24503   7.198  14.895   4.463  0.3505 -0.0824 -0.1688
    1DIPC   C4B24504   7.109  15.282   4.566  0.0375 -0.2555 -0.2169
    1DIPC   NC324505  17.202  24.870   2.849  0.0050 -0.2167 -0.0665
    1DIPC   PO424506  17.293  25.242   3.075 -0.3644 -0.3817  0.2272
    1DIPC   GL124507  17.209  25.042   3.519 -0.0922  0.2260 -0.0953
    1DIPC   GL224508  17.573  24.982   3.618 -0.2878 -0.2118  0.4036
    1DIPC   C1A24509  17.244  25.261   3.941 -0.2508  0.1572  0.0027
    1DIPC   D2A24510  16.895  25.307   4.213 -0.1550 -0.1914 -0.0508
    1DIPC   D3A24511  16.333  25.289   4.188 -0.0450 -0.0380  0.0940
    1DIPC   C4A24512  16.167  25.503   3.857  0.1772 -0.1631  0.0468
    1DIPC   C1B24513  17.766  25.188   4.003  0.2598  0.2023 -0.0247
    1DIPC   D2B24514  17.517  25.258   4.336  0.0719  0.1087 -0.1463
    1DIPC   D3B24515  17.395  25.586   4.499 -0.1134 -0.2606  0.0187
    1DIPC   C4B24516  17.082  25.376   4.643  0.1810 -0.1421  0.0251
    1DIPC   NC324517  24.600  21.250   2.471 -0.0803 -0.2296  0.1093
    1DIPC   PO424518  24.645  20.935   2.688 -0.0245  0.0502  0.0961
    1DIPC   GL124519  24.371  21.128   3.007 -0.0737  0.0680  0.0248
    1DIPC   GL224520  24.063  21.053   2.912 -0.2406  0.2571 -0.0219
    1DIPC   C1A24521  24.165  20.998   3.451  0.0447 -0.0477  0.1074
    1DIPC   D2A24522  24.098  20.829   3.817 -0.3427  0.0885  0.2663
    1DIPC   D3A24523  23.644  20.611   3.826  0.1705 -0.2544 -0.1112
    1DIPC   C4A24524  23.338  20.879   3.769  0.2319 -0.1616  0.0313
    1DIPC   C1B24525  23.758  21.409   3.226  0.3175 -0.1037  0.0646
    1DIPC   D2B24526  23.442  21.543   3.488 -0.0755  0.0338 -0.0384
    1DIPC   D3B24527  23.313  21.481   3.936  0.2258  0.0554  0.3345
    1DIPC   C4B24528  23.631  21.561   4.261 -0.1192 -0.0338  0.2414
    1DIPC   NC324529   4.945  19.009   1.072  0.3467  0.2209  0.1038
    1DIPC   PO424530   4.751  19.271   1.398 -0.3294  0.3305  0.0411
    1DIPC   GL124531   4.646  19.211   1.797 -0.2944  0.0976 -0.3159
    1DIPC   GL224532   4.278  19.266   1.862 -0.0814  0.1384  0.0982
    1DIPC   C1A24533   4.718  19.282   2.197  0.0272 -0.3132 -0.1611
    1DIPC   D2A24534   4.674  19.717   2.402 -0.1210  0.1877  0.1444
    1DIPC   D3A24535   4.727  19.739   2.820 -0.0951 -0.1767  0.1112
    1DIPC   C4A24536   4.403  19.755   3.084  0.2407 -0.2519 -0.4384
    1DIPC   C1B24537   4.144  19.047   2.156 -0.0553  0.0820  0.0700
    1DIPC   D2B24538   3.845  19.068   2.504 -0.1566 -0.0056 -0.0696
    1DIPC   D3B24539   3.857  18.629   2.758  0.1210 -0.2327 -0.2780
    1DIPC   C4B24540   3.628  18.587   3.050  0.0099 -0.1682 -0.0718
    1DIPC   NC324541  24.075   3.540   2.256 -0.0624 -0.2448  0.2736
    1DIPC   PO424542  23.997   3.334   2.608  0.1189 -0.0136  0.1076
    1DIPC   GL124543  23.940   3.210   3.028  0.1699 -0.1174 -0.2931
    1DIPC   GL224544  24.098   3.365   3.362  0.0754 -0.0865 -0.0962
    1DIPC   C1A24545  23.869   2.917   3.404  0.0977  0.1436 -0.1495
    1DIPC   D2A24546  24.007   2.711   3.777 -0.2462  0.1150  0.0092
    1DIPC   D3A24547  23.943   2.304   3.768  0.2142  0.0613 -0.0381
    1DIPC   C4A24548  23.517   2.171   3.797 -0.0810  0.1985  0.1165
    1DIPC   C1B24549  23.964   3.255   3.754  0.1727 -0.3213  0.0295
    1DIPC   D2B24550  24.132   3.519   4.038 -0.0573 -0.0044 -0.1100
    1DIPC   D3B24551  24.486   3.486   4.387 -0.2719  0.0914 -0.0675
    1DIPC   C4B24552  24.692   3.069   4.398 -0.0629 -0.0521 -0.2770
    1DIPC   NC324553   3.125   6.952   3.402  0.3781 -0.1465  0.2402
    1DIPC   PO424554   3.059   6.582   3.242 -0.1116  0.1012  0.3350
    1DIPC   GL124555   3.073   6.536   3.719  0.0489  0.0130  0.4292
    1DIPC   GL224556   2.884   6.301   3.848 -0.1057  0.0514 -0.0774
    1DIPC   C1A24557   3.105   6.588   4.135 -0.0173  0.1738 -0.3586
    1DIPC   D2A24558   3.372   6.848   4.347  0.0736  0.4240 -0.2135
    1DIPC   D3A24559   3.711   6.641   4.161 -0.0754 -0.2909  0.1497
    1DIPC   C4A24560   4.018   6.376   4.029 -0.0883 -0.1501  0.0959
    1DIPC   C1B24561   2.928   6.108   4.282  0.2271  0.0206 -0.0305
    1DIPC   D2B24562   2.859   5.730   4.457  0.0616 -0.2955  0.2715
    1DIPC   D3B24563   3.266   5.837   4.571  0.1457  0.2182 -0.2482
    1DIPC   C4B24564   3.293   5.937   4.927 -0.0741 -0.1405 -0.2068
    1DIPC   NC324565   8.693  26.876   2.489 -0.0881  0.0483 -0.0718
    1DIPC   PO424566   9.073  26.662   2.562 -0.1609  0.3334 -0.0050
    1DIPC   GL124567   8.896  26.615   3.056  0.1988  0.2994  0.1248
    1DIPC   GL224568   8.546  26.620   3.039  0.1033 -0.0749 -0.0373
    1DIPC   C1A24569   8.708  26.327   3.459  0.0757  0.2277  0.0946
    1DIPC   D2A24570   8.457  26.001   3.526  0.0443 -0.1567  0.0249
    1DIPC   D3A24571   8.648  25.751   3.262  0.1681  0.0935 -0.0261
    1DIPC   C4A24572   8.483  25.388   3.298 -0.0403  0.1000 -0.0700
    1DIPC   C1B24573   8.728  26.849   3.466  0.2418  0.1268 -0.1992
    1DIPC   D2B24574   8.689  27.046   3.868  0.0580 -0.1048  0.3634
    1DIPC   D3B24575   9.077  27.020   4.060 -0.1594 -0.1688  0.0319
    1DIPC   C4B24576   9.476  27.091   3.812 -0.0508 -0.0715  0.5306
    1DIPC   NC324577   1.115   4.384   3.206  0.6310  0.2533  0.0623
    1DIPC   PO424578   0.643   4.470   3.208 -0.1156  0.0171  0.2022
    1DIPC   GL124579   0.415   4.154   3.463  0.0061 -0.1701  0.2042
    1DIPC   GL224580   0.343   4.420   3.633  0.2247 -0.1748  0.1759
    1DIPC   C1A24581   0.430   4.048   3.976  0.0380  0.3861  0.0463
    1DIPC   D2A24582   0.426   4.094   4.454  0.0610  0.1289 -0.2021
    1DIPC   D3A24583   0.707   3.858   4.328 -0.1008  0.1094  0.2431
    1DIPC   C4A24584   1.108   4.019   4.191  0.0790 -0.3371  0.1470
    1DIPC   C1B24585  -0.089   4.546   3.775 -0.0725 -0.0113  0.0237
    1DIPC   D2B24586  -0.451   4.722   3.659 -0.1731 -0.1079  0.3153
    1DIPC   D3B24587  -0.692   4.844   4.023 -0.2260 -0.2169 -0.0164
    1DIPC   C4B24588  -0.883   4.627   4.412 -0.1312 -0.2087  0.0332
    1DIPC   NC324589  12.958  25.020   3.249  0.3204  0.1587 -0.1049
    1DIPC   PO424590  13.173  25.316   3.419  0.0488  0.0238  0.5772
    1DIPC   GL124591  13.431  25.187   3.755 -0.1337  0.1037 -0.0486
    1DIPC   GL224592  13.650  24.988   3.709 -0.0306 -0.0131 -0.1275
    1DIPC   C1A24593  13.474  25.311   4.187  0.3424  0.1309  0.3293
    1DIPC   D2A24594  13.309  25.411   4.582 -0.1214 -0.1157  0.2326
    1DIPC   D3A24595  12.842  25.306   4.591  0.0567  0.0162 -0.0356
    1DIPC   C4A24596  12.547  25.318   4.257  0.0495  0.9370 -0.1674
    1DIPC   C1B24597  13.874  25.148   3.990 -0.0058 -0.2409  0.1443
    1DIPC   D2B24598  14.050  25.279   4.373  0.0049  0.0031 -0.0898
    1DIPC   D3B24599  13.751  25.654   4.466 -0.1212  0.1471  0.0497
    1DIPC   C4B24600  13.419  25.914   4.622 -0.1415  0.1256 -0.1061
    1DIPC   NC324601   6.893  17.978   2.182  0.0416 -0.0865 -0.0741
    1DIPC   PO424602   6.450  17.934   2.120  0.0757  0.0232  0.0558
    1DIPC   GL124603   6.589  18.072   2.587  0.1470 -0.0583  0.1130
    1DIPC   GL224604   6.942  18.342   2.580 -0.1778 -0.0303  0.1655
    1DIPC   C1A24605   6.704  17.954   3.024  0.2026 -0.1942 -0.1075
    1DIPC   D2A24606   6.480  17.856   3.417  0.0217  0.0027  0.0947
    1DIPC   D3A24607   6.615  18.179   3.718 -0.2008 -0.2190  0.3524
    1DIPC   C4A24608   6.374  18.169   4.091  0.0028  0.0733  0.1538
    1DIPC   C1B24609   6.969  18.372   3.044 -0.0946 -0.5713  0.1766
    1DIPC   D2B24610   6.805  18.537   3.362 -0.4032 -0.5615  0.2170
    1DIPC   D3B24611   6.734  18.707   3.786 -0.0878  0.0997  0.0680
    1DIPC   C4B24612   6.815  18.932   4.115 -0.2400  0.1258 -0.0350
    1DIPC   NC324613   3.879   4.790   3.336  0.1300 -0.0547  0.1159
    1DIPC   PO424614   3.387   4.868   3.400  0.0375 -0.0903 -0.1204
    1DIPC   GL124615   3.626   4.937   3.750 -0.2944 -0.0232 -0.0037
    1DIPC   GL224616   3.877   5.252   3.754 -0.0908 -0.1237 -0.0878
    1DIPC   C1A24617   3.704   4.809   4.158 -0.0258  0.0901  0.0800
    1DIPC   D2A24618   3.824   4.777   4.576  0.0886  0.0891  0.0213
    1DIPC   D3A24619   4.041   5.126   4.545 -0.2599  0.0673  0.2920
    1DIPC   C4A24620   4.288   5.055   4.932  0.1234 -0.1065 -0.0051
    1DIPC   C1B24621   4.242   5.097   4.037 -0.2275 -0.0298  0.1778
    1DIPC   D2B24622   4.577   4.941   4.361  0.2109 -0.2645 -0.0600
    1DIPC   D3B24623   4.657   5.380   4.177  0.0860  0.0226  0.3112
    1DIPC   C4B24624   5.013   5.344   3.852  0.0286 -0.1196 -0.0585
    1DIPC   NC324625  25.151  23.938   2.825 -0.1080  0.1090  0.1129
    1DIPC   PO424626  25.578  23.974   2.889  0.1388 -0.1652  0.1238
    1DIPC   GL124627  25.587  24.148   3.415  0.3056 -0.1218 -0.0760
    1DIPC   GL224628  25.827  24.157   3.407  0.1082  0.0038 -0.0621
    1DIPC   C1A24629  25.362  24.192   3.788  0.1296 -0.1112  0.0675
    1DIPC   D2A24630  25.114  24.125   4.201 -0.0410  0.0609 -0.0725
    1DIPC   D3A24631  24.916  24.483   4.089  0.2875 -0.0596  0.1653
    1DIPC   C4A24632  24.744  24.769   4.359 -0.5139 -0.0612 -0.0601
    1DIPC   C1B24633  25.844  24.109   3.814  0.0142  0.2264  0.1787
    1DIPC   D2B24634  25.836  23.855   4.025  0.1527 -0.0972 -0.1627
    1DIPC   D3B24635  25.704  24.255   4.294 -0.3960  0.0993 -0.1965
    1DIPC   C4B24636  25.477  24.186   4.654  0.2930  0.1555  0.3890
    1DIPC   NC324637   9.229  13.514   2.090  0.2480 -0.1745 -0.2169
    1DIPC   PO424638   9.071  13.977   2.216 -0.1231 -0.0279  0.1636
    1DIPC   GL124639   8.818  14.046   2.661  0.1291 -0.0311 -0.1242
    1DIPC   GL224640   9.033  14.069   2.903  0.0288 -0.2071  0.2419
    1DIPC   C1A24641   8.554  14.028   2.967 -0.0443  0.1387 -0.1032
    1DIPC   D2A24642   8.270  14.276   3.091  0.2340  0.0200 -0.0129
    1DIPC   D3A24643   8.525  14.427   3.352 -0.0540  0.1252  0.1112
    1DIPC   C4A24644   8.444  14.866   3.430  0.0924 -0.1970  0.0043
    1DIPC   C1B24645   8.967  14.113   3.391  0.2114 -0.1217 -0.1808
    1DIPC   D2B24646   8.804  14.222   3.766 -0.1049  0.0434 -0.1815
    1DIPC   D3B24647   8.752  14.283   4.167 -0.3643 -0.3936 -0.0220
    1DIPC   C4B24648   8.515  14.734   4.206 -0.0197 -0.2077 -0.0574
    1DIPC   NC324649  21.044   2.134   2.402  0.1122 -0.0593 -0.0228
    1DIPC   PO424650  21.104   2.038   2.829 -0.0231  0.0507  0.2139
    1DIPC   GL124651  21.453   1.932   3.206 -0.1120 -0.2169  0.0726
    1DIPC   GL224652  21.621   2.247   3.364  0.0438  0.1512  0.4293
    1DIPC   C1A24653  21.567   1.905   3.690 -0.0944 -0.0209 -0.0103
    1DIPC   D2A24654  21.795   2.066   4.062  0.2230  0.1820  0.0831
    1DIPC   D3A24655  21.435   1.832   4.270 -0.2988  0.3364  0.1228
    1DIPC   C4A24656  21.056   2.111   4.401 -0.0249 -0.0029  0.0039
    1DIPC   C1B24657  21.517   2.406   3.738  0.2159 -0.1243 -0.1442
    1DIPC   D2B24658  21.384   2.357   4.111  0.2836  0.1594 -0.0986
    1DIPC   D3B24659  21.090   2.564   4.078 -0.1004  0.1567  0.0566
    1DIPC   C4B24660  20.795   2.672   4.365  0.0603  0.0830 -0.1759
    1DIPC   NC324661   6.722  15.260   2.488 -0.0800 -0.0499 -0.2680
    1DIPC   PO424662   6.281  15.251   2.663  0.2907 -0.0161  0.0529
    1DIPC   GL124663   6.130  15.257   3.005 -0.2107 -0.2635 -0.0132
    1DIPC   GL224664   5.762  15.219   3.162 -0.0204  0.1602 -0.0939
    1DIPC   C1A24665   6.118  15.415   3.461 -0.0499 -0.0070  0.0403
    1DIPC   D2A24666   6.254  15.327   3.754  0.2918 -0.0072  0.1218
    1DIPC   D3A24667   6.159  15.676   3.978 -0.0482 -0.1751 -0.0187
    1DIPC   C4A24668   6.171  16.021   4.295 -0.2353 -0.0311 -0.0050
    1DIPC   C1B24669   5.665  15.283   3.655 -0.0248 -0.4168 -0.0069
    1DIPC   D2B24670   5.741  15.403   4.051  0.1761 -0.2151 -0.0498
    1DIPC   D3B24671   6.089  15.249   4.265 -0.3499  0.1994  0.0425
    1DIPC   C4B24672   6.326  14.735   4.298  0.2030  0.1876 -0.2306
    1DIPC   NC324673  18.118  24.364   2.651  0.0362 -0.2893  0.0182
    1DIPC   PO424674  18.200  23.934   2.723 -0.0424  0.0604  0.0041
    1DIPC   GL124675  18.148  23.956   3.153 -0.1975 -0.0636 -0.0480
    1DIPC   GL224676  18.279  24.217   3.204  0.0353 -0.2662  0.1563
    1DIPC   C1A24677  18.012  24.130   3.662 -0.0601 -0.1209 -0.0556
    1DIPC   D2A24678  17.964  24.214   4.187 -0.3903 -0.1035  0.2029
    1DIPC   D3A24679  18.141  23.856   4.026  0.1810 -0.0374  0.0241
    1DIPC   C4A24680  18.228  23.566   4.399  0.2209 -0.1212 -0.0226
    1DIPC   C1B24681  18.388  24.478   3.650  0.1346 -0.1651  0.0574
    1DIPC   D2B24682  18.407  24.430   4.135  0.2074 -0.1471 -0.1152
    1DIPC   D3B24683  18.541  24.724   4.395 -0.0604 -0.1849  0.0693
    1DIPC   C4B24684  18.446  24.691   4.786  0.1150 -0.2411 -0.1327
    1DIPC   NC324685  26.469  17.570   1.632  0.1277 -0.0845  0.0703
    1DIPC   PO424686  26.775  17.853   1.811  0.1125  0.2110  0.0652
    1DIPC   GL124687  26.969  17.666   2.197 -0.5726 -0.1723  0.1610
    1DIPC   GL224688  26.779  17.825   2.471  0.0012  0.0088  0.1364
    1DIPC   C1A24689  26.868  17.346   2.536 -0.2331 -0.0803 -0.1732
    1DIPC   D2A24690  26.865  17.088   2.973  0.2722  0.2049 -0.4201
    1DIPC   D3A24691  26.723  17.363   3.260  0.2972 -0.0437  0.4971
    1DIPC   C4A24692  26.505  17.705   3.182 -0.3548  0.0329  0.0069
    1DIPC   C1B24693  26.990  17.747   2.833  0.1118 -0.1853 -0.2753
    1DIPC   D2B24694  26.990  17.830   3.279 -0.2274 -0.2728 -0.1088
    1DIPC   D3B24695  26.755  18.199   3.254 -0.1726  0.1370 -0.3084
    1DIPC   C4B24696  26.435  18.116   2.910 -0.2354 -0.2363 -0.0454
    1DIPC   NC324697  19.347  29.342   2.508 -0.1443 -0.0746  0.2073
    1DIPC   PO424698  19.281  29.277   2.975 -0.1897 -0.0092  0.1131
    1DIPC   GL124699  19.316  29.001   3.298  0.0692 -0.0456  0.0675
    1DIPC   GL224700  19.082  28.865   3.306 -0.0077 -0.0921 -0.1769
    1DIPC   C1A24701  19.663  28.927   3.714 -0.0881  0.4473 -0.1208
    1DIPC   D2A24702  19.708  29.215   4.101  0.2241  0.1457  0.0117
    1DIPC   D3A24703  19.866  28.858   4.213 -0.0104 -0.0865  0.3380
    1DIPC   C4A24704  19.991  28.439   4.251  0.0821  0.2828  0.0678
    1DIPC   C1B24705  19.142  28.926   3.775  0.1110  0.0225  0.1478
    1DIPC   D2B24706  19.218  29.003   4.208  0.1162 -0.1901  0.2300
    1DIPC   D3B24707  18.883  28.939   4.491  0.0198  0.0863 -0.1099
    1DIPC   C4B24708  18.691  29.223   4.701  0.1009  0.1072 -0.2160
    1DIPC   NC324709   5.366   5.339   2.641  0.3385  0.2256  0.0544
    1DIPC   PO424710   5.614   5.631   2.997 -0.3108  0.1042 -0.0398
    1DIPC   GL124711   5.632   5.438   3.378 -0.1999  0.1629  0.1066
    1DIPC   GL224712   5.403   5.557   3.571 -0.0434 -0.0552  0.2101
    1DIPC   C1A24713   5.744   5.005   3.611 -0.0648  0.2494 -0.0466
    1DIPC   D2A24714   5.977   4.802   3.867  0.1039 -0.2110 -0.3463
    1DIPC   D3A24715   6.335   5.061   4.066 -0.1988  0.2056 -0.2004
    1DIPC   C4A24716   6.537   5.323   3.849  0.3980  0.1969 -0.2516
    1DIPC   C1B24717   5.582   5.415   3.927 -0.2734  0.1431 -0.2040
    1DIPC   D2B24718   5.747   5.150   4.135 -0.0771  0.2512  0.2326
    1DIPC   D3B24719   5.793   5.387   4.555 -0.1596 -0.0484 -0.1177
    1DIPC   C4B24720   5.379   5.425   4.670 -0.1675  0.2193 -0.0076
    1DIPC   NC324721   3.501   6.375   3.419 -0.1814 -0.1187  0.1291
    1DIPC   PO424722   3.593   6.816   3.289 -0.1498 -0.0497  0.2076
    1DIPC   GL124723   3.716   6.880   3.677 -0.0339  0.0510  0.0251
    1DIPC   GL224724   3.440   6.851   3.782  0.2758 -0.0313 -0.2109
    1DIPC   C1A24725   3.861   7.083   3.981  0.2944  0.0683  0.0292
    1DIPC   D2A24726   3.963   7.068   4.394 -0.1676  0.1058  0.2340
    1DIPC   D3A24727   3.635   6.879   4.767  0.2686 -0.0484  0.0711
    1DIPC   C4A24728   3.640   6.978   5.187 -0.0326  0.0941  0.2547
    1DIPC   C1B24729   3.231   7.214   4.089  0.3049  0.0033  0.0036
    1DIPC   D2B24730   3.339   7.433   4.410 -0.1096 -0.0106 -0.0083
    1DIPC   D3B24731   3.686   7.510   4.285  0.0823 -0.1681 -0.1497
    1DIPC   C4B24732   3.901   7.875   4.507 -0.0707 -0.1982  0.0490
    1DIPC   NC324733   8.954  24.031   2.475  0.4112  0.2903  0.0635
    1DIPC   PO424734   9.105  23.659   2.457  0.0057 -0.0133 -0.0233
    1DIPC   GL124735   9.145  23.440   2.784 -0.0570  0.0352 -0.1251
    1DIPC   GL224736   9.145  23.175   2.810 -0.0868 -0.1929  0.0172
    1DIPC   C1A24737   9.315  23.518   3.175 -0.2170  0.0007 -0.0507
    1DIPC   D2A24738   9.357  23.190   3.542  0.1615 -0.1706 -0.2049
    1DIPC   D3A24739   9.747  23.488   3.610 -0.0200  0.2284 -0.2620
    1DIPC   C4A24740   9.952  23.310   3.839 -0.1004  0.2025 -0.2973
    1DIPC   C1B24741   8.937  23.225   3.190  0.1675 -0.3937 -0.0570
    1DIPC   D2B24742   8.668  23.248   3.564 -0.1438 -0.0156  0.0786
    1DIPC   D3B24743   8.469  22.961   3.808 -0.1715 -0.4973  0.2955
    1DIPC   C4B24744   8.331  23.134   4.259 -0.0567 -0.0136 -0.0313
    1DIPC   NC324745  21.540  25.273   2.861  0.2136 -0.0011  0.1349
    1DIPC   PO424746  21.500  24.872   3.117  0.1737 -0.1459  0.0032
    1DIPC   GL124747  21.570  24.935   3.556  0.2930 -0.0786  0.1177
    1DIPC   GL224748  21.751  24.868   3.775  0.0261  0.0068  0.3844
    1DIPC   C1A24749  21.313  25.087   4.022  0.0837 -0.2888  0.0797
    1DIPC   D2A24750  21.322  25.382   4.183 -0.3307  0.1630  0.0543
    1DIPC   D3A24751  20.912  25.555   4.399 -0.0631 -0.1015 -0.3143
    1DIPC   C4A24752  20.568  25.676   4.254  0.1244 -0.3578  0.0075
    1DIPC   C1B24753  21.896  25.000   4.108  0.4755  0.1388 -0.0051
    1DIPC   D2B24754  21.607  25.050   4.427 -0.0031 -0.1564 -0.0285
    1DIPC   D3B24755  21.208  24.783   4.417 -0.0677  0.2731 -0.0775
    1DIPC   C4B24756  20.990  24.714   4.077 -0.1426 -0.2109 -0.1085
    1DIPC   NC324757   3.136  24.042   1.957  0.1762  0.2382  0.0699
    1DIPC   PO424758   2.759  23.821   2.015 -0.1675  0.0562 -0.1397
    1DIPC   GL124759   2.723  23.795   2.428 -0.0971  0.1110 -0.0461
    1DIPC   GL224760   2.845  24.051   2.537 -0.0543  0.3885  0.0847
    1DIPC   C1A24761   2.753  23.487   2.785 -0.1551 -0.0936  0.2384
    1DIPC   D2A24762   2.724  23.133   2.956  0.1925 -0.1378 -0.0958
    1DIPC   D3A24763   2.744  23.044   3.421  0.2291  0.2365 -0.0503
    1DIPC   C4A24764   2.430  23.220   3.675  0.0729 -0.0746 -0.2688
    1DIPC   C1B24765   3.050  23.874   2.946 -0.1847  0.0831 -0.2502
    1DIPC   D2B24766   3.142  23.563   3.202  0.5274 -0.2123  0.0182
    1DIPC   D3B24767   3.115  23.911   3.479 -0.1863 -0.0158 -0.0629
    1DIPC   C4B24768   3.144  23.868   3.944 -0.1646 -0.0625 -0.3336
    1DIPC   NC324769   6.259  14.138   3.250 -0.2201 -0.1904  0.0489
    1DIPC   PO424770   6.205  13.694   3.214  0.1328  0.0187  0.1405
    1DIPC   GL124771   5.998  13.760   3.638  0.2222  0.2040  0.0080
    1DIPC   GL224772   5.895  13.620   3.823  0.3967  0.1498 -0.0693
    1DIPC   C1A24773   6.030  14.087   3.999 -0.0944  0.0138 -0.1486
    1DIPC   D2A24774   5.924  14.289   4.333  0.1393  0.3432  0.0079
    1DIPC   D3A24775   5.455  14.407   4.217  0.2298  0.0497 -0.1961
    1DIPC   C4A24776   5.183  14.499   4.466 -0.0893 -0.4460 -0.0490
    1DIPC   C1B24777   5.946  13.663   4.237  0.2031 -0.0202  0.0550
    1DIPC   D2B24778   6.175  13.902   4.571  0.3332  0.1663  0.2186
    1DIPC   D3B24779   5.895  14.091   4.982  0.1127 -0.0592  0.1028
    1DIPC   C4B24780   5.419  13.857   4.965  0.1723  0.2206  0.0263
    1DIPC   NC324781   1.549  22.599   1.646 -0.0364  0.0101  0.0921
    1DIPC   PO424782   1.838  22.877   1.656  0.2693 -0.2771 -0.2315
    1DIPC   GL124783   1.837  22.757   2.073 -0.0292  0.2580  0.1034
    1DIPC   GL224784   2.112  22.525   2.206 -0.0854 -0.0593 -0.0263
    1DIPC   C1A24785   1.704  22.781   2.415  0.0702  0.1497 -0.0267
    1DIPC   D2A24786   1.668  22.507   2.698  0.0970 -0.0595 -0.1523
    1DIPC   D3A24787   1.328  22.297   2.609 -0.1779  0.2814 -0.3842
    1DIPC   C4A24788   1.031  22.301   2.494 -0.1011 -0.0080 -0.1791
    1DIPC   C1B24789   2.221  22.530   2.640  0.0688  0.1968  0.1338
    1DIPC   D2B24790   2.452  22.742   2.995  0.1140  0.2786  0.1805
    1DIPC   D3B24791   1.905  22.614   3.072 -0.3639 -0.3046  0.0473
    1DIPC   C4B24792   1.725  22.306   3.245 -0.0703  0.2934  0.0062
    1DIPC   NC324793  23.636  19.645   1.944  0.0192 -0.3045 -0.1679
    1DIPC   PO424794  23.929  19.412   2.139  0.0541  0.2719 -0.0380
    1DIPC   GL124795  23.740  19.394   2.502 -0.2292  0.1617  0.0962
    1DIPC   GL224796  23.644  19.677   2.470  0.0659 -0.1243 -0.1964
    1DIPC   C1A24797  23.832  19.239   2.959 -0.1885 -0.1785  0.3313
    1DIPC   D2A24798  23.840  19.157   3.364 -0.0032 -0.0775 -0.1472
    1DIPC   D3A24799  23.728  19.411   3.681  0.0348 -0.1250 -0.0075
    1DIPC   C4A24800  23.990  19.815   3.727 -0.2585  0.2931  0.2363
    1DIPC   C1B24801  23.453  19.758   2.829  0.1115  0.0867 -0.0619
    1DIPC   D2B24802  23.359  20.037   3.219 -0.0860  0.1641  0.1341
    1DIPC   D3B24803  23.392  19.816   3.573  0.0992  0.1408  0.0079
    1DIPC   C4B24804  23.546  19.816   4.022  0.1533  0.0892 -0.1703
    1DIPC   NC324805   1.491   8.199   2.316  0.0081 -0.2532  0.0394
    1DIPC   PO424806   1.037   8.422   2.327  0.0620  0.2171  0.1134
    1DIPC   GL124807   1.165   8.254   2.738 -0.1236 -0.2153  0.2615
    1DIPC   GL224808   1.297   8.545   2.927 -0.1037 -0.1086 -0.1411
    1DIPC   C1A24809   1.180   8.087   3.143  0.1582  0.0461  0.0364
    1DIPC   D2A24810   0.993   8.236   3.517 -0.2953 -0.0921  0.0659
    1DIPC   D3A24811   1.250   8.227   3.975  0.0904 -0.0184 -0.0583
    1DIPC   C4A24812   0.978   8.172   4.344 -0.4606 -0.0207 -0.2609
    1DIPC   C1B24813   1.452   8.424   3.383  0.0495 -0.1395 -0.0937
    1DIPC   D2B24814   1.678   8.152   3.670 -0.1526 -0.1320  0.3335
    1DIPC   D3B24815   1.716   8.040   3.295 -0.0423  0.4188  0.2948
    1DIPC   C4B24816   1.775   7.594   3.423  0.1040 -0.0405  0.0842
    1DIPC   NC324817  15.587   8.392   2.808  0.0165 -0.2227  0.1525
    1DIPC   PO424818  15.491   8.165   3.291  0.2694 -0.0021 -0.0910
    1DIPC   GL124819  15.225   8.313   3.737  0.1582 -0.0697 -0.0218
    1DIPC   GL224820  15.051   8.649   3.749  0.3136  0.1702 -0.1330
    1DIPC   C1A24821  15.117   8.186   4.150 -0.1581 -0.0079  0.4304
    1DIPC   D2A24822  15.163   8.141   4.542 -0.0164 -0.0737  0.0253
    1DIPC   D3A24823  15.237   8.453   4.803  0.1046  0.0623 -0.2307
    1DIPC   C4A24824  15.468   8.820   4.562  0.1203  0.3378  0.0464
    1DIPC   C1B24825  15.421   8.942   3.709 -0.2490  0.2648  0.0004
    1DIPC   D2B24826  15.837   9.041   3.912 -0.1244  0.0178 -0.2093
    1DIPC   D3B24827  15.591   9.260   4.231  0.1427 -0.1804  0.0862
    1DIPC   C4B24828  15.775   9.158   4.771 -0.0576 -0.2555 -0.2245
    1DIPC   NC324829  18.358  21.229   2.178 -0.0721  0.2337  0.2388
    1DIPC   PO424830  18.573  21.520   2.360  0.0739  0.1548  0.2290
    1DIPC   GL124831  18.363  21.477   2.771 -0.0506  0.3497  0.0373
    1DIPC   GL224832  18.302  21.135   2.814 -0.1489  0.1964  0.1705
    1DIPC   C1A24833  18.250  21.522   3.206  0.0618  0.0568  0.0610
    1DIPC   D2A24834  18.318  21.572   3.524  0.1656  0.6122 -0.0290
    1DIPC   D3A24835  18.153  21.721   3.981 -0.0331  0.0890  0.0401
    1DIPC   C4A24836  18.346  22.034   4.166 -0.3127  0.2753  0.2403
    1DIPC   C1B24837  18.324  21.083   3.330  0.0732  0.2483  0.0214
    1DIPC   D2B24838  18.493  21.012   3.634  0.3919 -0.2118  0.0147
    1DIPC   D3B24839  18.470  21.302   4.016  0.0006  0.1871  0.0623
    1DIPC   C4B24840  18.767  21.596   4.211  0.0513  0.1244  0.0961
    1DIPC   NC324841  21.424  21.769   2.092 -0.0141 -0.0765  0.1940
    1DIPC   PO424842  21.523  21.314   2.102 -0.0614  0.2566 -0.1345
    1DIPC   GL124843  21.500  21.434   2.504 -0.0368  0.0953  0.0335
    1DIPC   GL224844  21.642  21.227   2.796  0.0968 -0.0266  0.1856
    1DIPC   C1A24845  21.581  21.709   2.963  0.3154 -0.1109  0.2696
    1DIPC   D2A24846  21.719  21.695   3.505 -0.2326  0.3913 -0.2272
    1DIPC   D3A24847  21.489  22.034   3.658  0.2556  0.3595  0.0624
    1DIPC   C4A24848  21.543  22.267   3.882  0.3983  0.0743  0.0977
    1DIPC   C1B24849  21.988  21.409   2.826 -0.3133  0.3984 -0.0992
    1DIPC   D2B24850  22.458  21.577   3.101 -0.0175 -0.3362 -0.1138
    1DIPC   D3B24851  22.394  21.458   3.510 -0.0741 -0.0019  0.0991
    1DIPC   C4B24852  22.087  21.504   3.841  0.1559  0.0499 -0.0338
    1DIPC   NC324853  24.089   0.101   3.090  0.3025 -0.0337  0.1014
    1DIPC   PO424854  23.682  -0.156   3.214  0.0377 -0.0608  0.0993
    1DIPC   GL124855  23.856  -0.177   3.606 -0.1077 -0.0947  0.1365
    1DIPC   GL224856  24.057  -0.389   3.710 -0.0482  0.2682 -0.2229
    1DIPC   C1A24857  23.675  -0.361   4.006 -0.0511 -0.1840  0.0120
    1DIPC   D2A24858  23.574  -0.498   4.414 -0.3398 -0.1787  0.2373
    1DIPC   D3A24859  23.749  -0.871   4.476  0.2114  0.0294  0.0049
    1DIPC   C4A24860  23.605  -1.250   4.233 -0.0313 -0.0433 -0.0370
    1DIPC   C1B24861  24.095  -0.151   4.050 -0.1629  0.0626  0.0669
    1DIPC   D2B24862  23.901  -0.117   4.416  0.0405 -0.0668 -0.2019
    1DIPC   D3B24863  24.136  -0.023   4.843  0.3264 -0.0392  0.0245
    1DIPC   C4B24864  24.410  -0.293   4.887  0.1222 -0.2169  0.2275
    1DIPC   NC324865   2.776   5.081   2.935 -0.3440 -0.0124 -0.0912
    1DIPC   PO424866   2.897   5.030   3.358 -0.1555 -0.0807 -0.0279
    1DIPC   GL124867   2.648   5.158   3.746 -0.0851 -0.1138  0.0725
    1DIPC   GL224868   2.375   5.311   3.630  0.2351 -0.1394  0.1330
    1DIPC   C1A24869   2.844   5.385   3.996  0.0985  0.0029 -0.1601
    1DIPC   D2A24870   3.209   5.603   4.120  0.0557 -0.0360  0.1780
    1DIPC   D3A24871   3.128   5.333   4.451 -0.0647 -0.2954  0.1474
    1DIPC   C4A24872   2.954   5.341   4.800 -0.0966  0.2504  0.1717
    1DIPC   C1B24873   2.186   5.228   4.123  0.1852  0.4286  0.0327
    1DIPC   D2B24874   2.156   5.188   4.562  0.2792 -0.2451 -0.0868
    1DIPC   D3B24875   2.306   5.410   4.927  0.0444  0.3897  0.1024
    1DIPC   C4B24876   2.618   5.336   5.175 -0.1936 -0.1222 -0.1569
    1DIPC   NC324877   1.192   0.833   3.452  0.2605 -0.4293 -0.1725
    1DIPC   PO424878   0.863   0.505   3.650 -0.2500  0.1317  0.1403
    1DIPC   GL124879   0.770   0.367   4.009 -0.0547 -0.1884  0.1597
    1DIPC   GL224880   0.479   0.523   4.110  0.0836 -0.3909 -0.5069
    1DIPC   C1A24881   0.824   0.183   4.434  0.1617 -0.3552  0.0373
    1DIPC   D2A24882   0.731   0.243   4.817  0.0780 -0.0213 -0.2166
    1DIPC   D3A24883   1.088  -0.081   4.776  0.1431 -0.0350  0.0205
    1DIPC   C4A24884   1.476   0.002   5.008 -0.3042 -0.1195  0.3716
    1DIPC   C1B24885   0.298   0.327   4.476  0.1010  0.2358 -0.0177
    1DIPC   D2B24886   0.287  -0.058   4.750 -0.1982  0.0032 -0.0098
    1DIPC   D3B24887   0.365  -0.010   5.159  0.2489 -0.0758  0.0666
    1DIPC   C4B24888   0.323   0.386   5.371  0.2071  0.0065  0.0577
    1DIPC   NC324889  28.019  10.638   2.022  0.0557  0.1877  0.1814
    1DIPC   PO424890  27.802  10.873   2.243  0.1859 -0.1162 -0.0539
    1DIPC   GL124891  27.875  10.909   2.691 -0.1055  0.0580  0.1247
    1DIPC   GL224892  27.765  10.703   2.904 -0.2670 -0.1475 -0.0762
    1DIPC   C1A24893  27.887  11.109   3.042  0.0079 -0.0614  0.2427
    1DIPC   D2A24894  27.965  11.368   3.468 -0.0053 -0.2902  0.1241
    1DIPC   D3A24895  27.621  11.721   3.426 -0.0218  0.1529 -0.1595
    1DIPC   C4A24896  27.421  11.675   3.813  0.2631  0.0413 -0.0588
    1DIPC   C1B24897  27.368  10.927   3.059 -0.0462  0.3410  0.2848
    1DIPC   D2B24898  27.264  11.194   3.388  0.2500  0.0264 -0.0912
    1DIPC   D3B24899  26.966  11.387   3.557  0.1754 -0.1456 -0.0397
    1DIPC   C4B24900  27.000  11.568   4.051  0.1187  0.1982  0.2041
    1DIPC   NC324901   4.857   7.604   3.262  0.1810  0.0820 -0.2341
    1DIPC   PO424902   4.972   8.107   3.303  0.0409  0.1890  0.0876
    1DIPC   GL124903   4.925   8.279   3.759 -0.0893 -0.2680 -0.3630
    1DIPC   GL224904   5.205   8.579   3.881 -0.0048  0.1629  0.0523
    1DIPC   C1A24905   4.780   8.477   4.098  0.2173  0.1261 -0.1809
    1DIPC   D2A24906   4.468   8.628   4.310  0.0928 -0.3292  0.0525
    1DIPC   D3A24907   4.304   8.686   4.648 -0.1727  0.1283 -0.3344
    1DIPC   C4A24908   3.999   9.035   4.727 -0.0525  0.1011  0.0748
    1DIPC   C1B24909   5.210   8.761   4.254  0.3144 -0.2337  0.1041
    1DIPC   D2B24910   5.344   9.057   4.629 -0.1841  0.1073  0.0449
    1DIPC   D3B24911   4.919   8.877   4.628  0.2284 -0.1222  0.0154
    1DIPC   C4B24912   4.628   9.046   4.993  0.0929 -0.0769 -0.0610
    1DIPC   NC324913  29.865  11.618   2.254 -0.2148  0.2212  0.1962
    1DIPC   PO424914  30.258  11.416   2.303  0.1083  0.0444 -0.3153
    1DIPC   GL124915  30.211  11.634   2.717  0.0266  0.1418 -0.2274
    1DIPC   GL224916  30.165  11.954   2.875 -0.0358  0.2085 -0.1912
    1DIPC   C1A24917  30.179  11.466   3.077 -0.0917 -0.0302  0.3169
    1DIPC   D2A24918  30.129  11.289   3.536 -0.1999  0.1174  0.0957
    1DIPC   D3A24919  30.425  11.290   3.840  0.1962 -0.0145 -0.1300
    1DIPC   C4A24920  30.757  11.266   4.157 -0.0850  0.1699 -0.2028
    1DIPC   C1B24921  29.938  12.226   2.981 -0.1717 -0.3398  0.1335
    1DIPC   D2B24922  29.759  12.454   3.259 -0.1530 -0.0078  0.1002
    1DIPC   D3B24923  29.363  12.418   3.165  0.0963  0.0002 -0.4526
    1DIPC   C4B24924  29.140  12.713   3.289 -0.1593  0.2146  0.0872
    1DIPC   NC324925   2.218  25.040   2.276 -0.0079  0.3323 -0.1666
    1DIPC   PO424926   2.576  25.351   2.393 -0.3481 -0.2277  0.4143
    1DIPC   GL124927   2.606  25.181   2.751 -0.0739  0.3195 -0.1046
    1DIPC   GL224928   2.855  24.994   2.710  0.3055  0.0632  0.1515
    1DIPC   C1A24929   2.622  25.347   3.241  0.0876  0.2369  0.0145
    1DIPC   D2A24930   2.441  25.301   3.613  0.2842  0.1215  0.0569
    1DIPC   D3A24931   2.130  25.162   3.876 -0.2520 -0.1522 -0.0969
    1DIPC   C4A24932   2.085  25.367   4.204 -0.0006 -0.0820 -0.2346
    1DIPC   C1B24933   2.882  24.929   3.096 -0.0493 -0.1780 -0.4602
    1DIPC   D2B24934   3.117  24.906   3.433 -0.3257 -0.0098  0.3719
    1DIPC   D3B24935   3.362  24.597   3.475  0.1272  0.3033 -0.0952
    1DIPC   C4B24936   3.308  24.297   3.797  0.0384  0.0548  0.0652
    1DIPC   NC324937   2.653  23.293   1.672  0.3293  0.0821 -0.5358
    1DIPC   PO424938   3.015  23.245   2.094 -0.1906  0.0910  0.2082
    1DIPC   GL124939   3.122  23.131   2.477  0.5128  0.1825  0.3202
    1DIPC   GL224940   2.878  22.927   2.564  0.1750 -0.2425 -0.1619
    1DIPC   C1A24941   3.295  23.219   2.847 -0.0265  0.2374  0.4048
    1DIPC   D2A24942   3.236  23.066   3.296  0.1474 -0.0979 -0.1128
    1DIPC   D3A24943   3.418  23.366   3.636 -0.1341 -0.1029 -0.0968
    1DIPC   C4A24944   3.244  23.377   4.046 -0.1555 -0.2807 -0.0690
    1DIPC   C1B24945   2.413  22.921   2.434 -0.0551 -0.1231 -0.2956
    1DIPC   D2B24946   2.082  23.176   2.397  0.1268 -0.0309  0.0594
    1DIPC   D3B24947   2.020  22.992   2.761  0.1576 -0.3091  0.0387
    1DIPC   C4B24948   2.241  23.161   3.126 -0.1529 -0.2742 -0.0805
    1DIPC   NC324949  19.937   8.677   2.308 -0.1813  0.0103 -0.0637
    1DIPC   PO424950  20.147   8.786   2.774  0.0194  0.1794  0.1149
    1DIPC   GL124951  20.378   9.069   3.124  0.0839  0.0425  0.2817
    1DIPC   GL224952  20.678   8.941   3.203  0.3720  0.2752 -0.0656
    1DIPC   C1A24953  20.394   9.405   3.492 -0.0862 -0.0648  0.0861
    1DIPC   D2A24954  20.191   9.540   3.855  0.1667 -0.1084  0.0943
    1DIPC   D3A24955  20.419   9.668   4.171  0.0595 -0.2534  0.1866
    1DIPC   C4A24956  20.521  10.073   4.205  0.1731 -0.0987  0.2032
    1DIPC   C1B24957  20.559   8.930   3.594  0.0491 -0.0699 -0.1064
    1DIPC   D2B24958  20.634   8.767   3.936 -0.1960  0.0158 -0.3319
    1DIPC   D3B24959  20.668   9.201   4.115  0.1873 -0.1299 -0.0168
    1DIPC   C4B24960  20.912   9.446   4.122 -0.0410  0.0969  0.0070
    1DIPC   NC324961  25.822   9.567   1.926 -0.1685  0.1027 -0.2836
    1DIPC   PO424962  25.984   9.283   2.253  0.0929  0.0460  0.0514
    1DIPC   GL124963  25.905   9.169   2.717  0.2357 -0.1548  0.2111
    1DIPC   GL224964  26.099   9.164   2.990 -0.2465  0.1177  0.4307
    1DIPC   C1A24965  25.670   9.232   3.224 -0.1331 -0.2443  0.1581
    1DIPC   D2A24966  25.683   9.255   3.660 -0.2155 -0.0784 -0.0364
    1DIPC   D3A24967  25.275   9.127   3.747  0.1720  0.2444 -0.0661
    1DIPC   C4A24968  24.963   9.466   3.743 -0.0529  0.0501 -0.1622
    1DIPC   C1B24969  26.143   9.336   3.365  0.0665 -0.1248 -0.1910
    1DIPC   D2B24970  26.203   9.494   3.784 -0.0942 -0.0434 -0.3102
    1DIPC   D3B24971  26.547   9.418   3.731 -0.0707  0.2170 -0.0833
    1DIPC   C4B24972  26.570   9.001   3.567 -0.3538 -0.1448  0.3284
    1DIPC   NC324973  26.201  30.081   2.538 -0.1409  0.1206 -0.0388
    1DIPC   PO424974  26.403  30.043   2.989 -0.1795 -0.0051  0.2466
    1DIPC   GL124975  26.431  29.840   3.332  0.1072 -0.1180  0.0835
    1DIPC   GL224976  26.087  29.788   3.345 -0.1934 -0.0189  0.0505
    1DIPC   C1A24977  26.361  29.785   3.782 -0.1007 -0.1276  0.1685
    1DIPC   D2A24978  26.120  29.684   4.062 -0.0469 -0.4058 -0.1382
    1DIPC   D3A24979  26.337  29.356   4.293  0.0935  0.1714  0.0275
    1DIPC   C4A24980  26.052  29.131   4.450  0.0164 -0.1747  0.1350
    1DIPC   C1B24981  25.786  29.891   3.708  0.0336  0.0797  0.5584
    1DIPC   D2B24982  25.512  30.046   4.047  0.0166 -0.1193  0.1133
    1DIPC   D3B24983  25.459  30.244   4.486 -0.1494 -0.0333 -0.1521
    1DIPC   C4B24984  25.385  29.979   4.819  0.1424  0.0082  0.1256
    1DIPC   NC324985  27.851  19.919   2.351 -0.0736  0.1547 -0.1286
    1DIPC   PO424986  27.511  20.023   2.049 -0.0909 -0.3311 -0.1304
    1DIPC   GL124987  27.366  20.128   2.359 -0.0776  0.0212 -0.3430
    1DIPC   GL224988  27.574  20.113   2.749 -0.0873  0.2706 -0.1584
    1DIPC   C1A24989  27.150  19.772   2.579 -0.0231 -0.0453 -0.0177
    1DIPC   D2A24990  26.677  19.741   2.504 -0.1298  0.4000 -0.0512
    1DIPC   D3A24991  26.362  19.734   2.878 -0.3073 -0.1913  0.1216
    1DIPC   C4A24992  25.967  19.598   2.805  0.0204 -0.0974 -0.0910
    1DIPC   C1B24993  27.464  19.863   3.125  0.2301  0.3286 -0.0070
    1DIPC   D2B24994  27.484  19.616   3.389  0.0661 -0.0033 -0.1899
    1DIPC   D3B24995  27.188  19.625   3.689 -0.3108  0.0948  0.1094
    1DIPC   C4B24996  26.917  19.419   3.484 -0.2922 -0.0486  0.1306
    1DIPC   NC324997  25.795  12.496   1.885  0.0820 -0.1872 -0.0509
    1DIPC   PO424998  25.900  12.090   1.885 -0.2501  0.1639 -0.0515
    1DIPC   GL124999  26.048  12.139   2.273  0.3837  0.0079  0.0859
    1DIPC   GL225000  25.848  12.393   2.439 -0.0736  0.1818 -0.1939
    1DIPC   C1A25001  26.321  12.186   2.595  0.2006 -0.1399  0.0552
    1DIPC   D2A25002  26.723  12.081   2.690  0.0694  0.0492 -0.1239
    1DIPC   D3A25003  27.010  11.629   2.659 -0.3550 -0.0586  0.1347
    1DIPC   C4A25004  27.042  11.357   3.040 -0.0522  0.2205 -0.3418
    1DIPC   C1B25005  26.075  12.555   2.778 -0.0503 -0.0313 -0.1433
    1DIPC   D2B25006  26.297  12.796   2.973 -0.0030  0.0639  0.2682
    1DIPC   D3B25007  26.642  12.594   2.703 -0.2806  0.3225  0.4930
    1DIPC   C4B25008  26.632  12.343   2.289  0.0641 -0.0983  0.0347
    1DIPC   NC325009  17.780   5.452   3.302 -0.3353  0.1856  0.0602
    1DIPC   PO425010  17.384   5.609   3.577 -0.0005  0.1540  0.0850
    1DIPC   GL125011  17.277   5.655   4.073  0.2271  0.3568  0.3232
    1DIPC   GL225012  17.444   5.317   4.128 -0.0038  0.2612  0.1578
    1DIPC   C1A25013  17.591   5.698   4.583  0.1576 -0.4212  0.1699
    1DIPC   D2A25014  17.586   5.886   4.982  0.2067 -0.0776 -0.2734
    1DIPC   D3A25015  17.336   6.206   5.239  0.4966  0.1262 -0.1658
    1DIPC   C4A25016  16.969   6.273   5.548  0.2790 -0.1560  0.2021
    1DIPC   C1B25017  17.252   5.319   4.559 -0.0639  0.1195 -0.1542
    1DIPC   D2B25018  17.255   5.465   4.962 -0.1253 -0.1732  0.0651
    1DIPC   D3B25019  17.205   4.981   4.992 -0.0090 -0.0311 -0.0190
    1DIPC   C4B25020  17.480   4.757   5.215 -0.0710 -0.1507  0.1816
    1DIPC   NC325021   4.908   8.953   2.932  0.3465 -0.0830  0.0997
    1DIPC   PO425022   4.607   8.774   3.141  0.1884  0.1038  0.0252
    1DIPC   GL125023   4.347   9.047   3.392 -0.2332  0.0881  0.3474
    1DIPC   GL225024   3.994   9.100   3.206  0.2554  0.2267 -0.4614
    1DIPC   C1A25025   4.270   9.186   3.894  0.0414 -0.0384  0.0322
    1DIPC   D2A25026   4.089   9.042   4.233 -0.1599  0.0158 -0.1885
    1DIPC   D3A25027   4.058   8.574   4.071  0.0489 -0.3195  0.5128
    1DIPC   C4A25028   3.885   8.192   4.052  0.2461 -0.0695 -0.0211
    1DIPC   C1B25029   3.996   8.713   3.581  0.2019 -0.0109 -0.0380
    1DIPC   D2B25030   4.072   8.315   3.588 -0.1431  0.2213 -0.2508
    1DIPC   D3B25031   4.463   8.488   3.730  0.2365  0.1604  0.4293
    1DIPC   C4B25032   4.674   8.896   3.815  0.0702  0.0754  0.1096
    1DIPC   NC325033  16.001   5.814   3.664 -0.2182 -0.0533  0.3528
    1DIPC   PO425034  15.624   5.915   3.713  0.0209  0.0301 -0.3038
    1DIPC   GL125035  15.716   5.743   4.136  0.0756 -0.3360 -0.2341
    1DIPC   GL225036  15.915   5.804   4.170 -0.2172  0.0120 -0.0935
    1DIPC   C1A25037  15.500   5.572   4.381  0.0237  0.1259 -0.2399
    1DIPC   D2A25038  15.207   5.726   4.625 -0.4147  0.3597  0.0129
    1DIPC   D3A25039  15.352   5.808   4.996 -0.1588  0.1688 -0.2523
    1DIPC   C4A25040  15.240   5.835   5.477  0.0208  0.3910 -0.0778
    1DIPC   C1B25041  16.261   5.927   4.548  0.1767  0.0162 -0.2986
    1DIPC   D2B25042  16.484   5.915   4.887  0.1513  0.1608 -0.0004
    1DIPC   D3B25043  16.659   5.581   4.719  0.0459  0.1769  0.2787
    1DIPC   C4B25044  16.819   5.273   4.888 -0.1769 -0.1151 -0.1798
    1DIPC   NC325045  17.072   2.178   3.487  0.0370  0.0823 -0.0351
    1DIPC   PO425046  17.284   1.853   3.715 -0.3519  0.1926  0.0249
    1DIPC   GL125047  17.091   1.566   4.002  0.5414  0.1172  0.3007
    1DIPC   GL225048  16.847   1.385   3.969 -0.0991 -0.2480 -0.2084
    1DIPC   C1A25049  17.261   1.420   4.529  0.4355  0.0872  0.1870
    1DIPC   D2A25050  17.609   1.561   4.820  0.1766 -0.1096  0.0948
    1DIPC   D3A25051  17.505   1.841   5.275 -0.2167  0.1441 -0.0817
    1DIPC   C4A25052  17.157   2.071   5.320  0.3230  0.0511  0.1508
    1DIPC   C1B25053  16.825   1.195   4.346  0.0495 -0.0114 -0.0668
    1DIPC   D2B25054  16.539   1.001   4.551  0.0197 -0.1710 -0.2310
    1DIPC   D3B25055  16.250   1.339   4.520  0.0491 -0.1341  0.1337
    1DIPC   C4B25056  15.892   1.236   4.353  0.2701 -0.0696  0.1193
    1DIPC   NC325057  11.264   5.276   3.145  0.2207 -0.0671 -0.0162
    1DIPC   PO425058  10.836   5.522   3.274 -0.1157  0.0773  0.1166
    1DIPC   GL125059  10.791   5.637   3.719 -0.0008  0.2955  0.1290
    1DIPC   GL225060  10.459   5.725   3.948  0.1591  0.1813  0.2073
    1DIPC   C1A25061  10.899   5.697   4.154  0.1579  0.0728  0.0247
    1DIPC   D2A25062  10.645   5.745   4.526 -0.2279  0.0912 -0.2713
    1DIPC   D3A25063  10.581   5.756   4.928  0.1394  0.0036 -0.0741
    1DIPC   C4A25064  10.570   5.261   4.912 -0.0907 -0.0833 -0.0435
    1DIPC   C1B25065  10.622   6.110   4.136  0.0850  0.4160 -0.1364
    1DIPC   D2B25066  10.956   6.181   4.429 -0.1131 -0.1110  0.3654
    1DIPC   D3B25067  11.040   5.921   4.796 -0.1955  0.2273 -0.0850
    1DIPC   C4B25068  11.097   6.099   5.215  0.0587  0.1957  0.1470
    1DIPC   NC325069  27.824   9.261   2.211 -0.5258  0.0667  0.5226
    1DIPC   PO425070  28.176   9.563   2.261 -0.3232  0.0474  0.4555
    1DIPC   GL125071  28.048   9.470   2.663  0.1217 -0.0288 -0.1257
    1DIPC   GL225072  27.880   9.595   2.853  0.2749  0.2455  0.1884
    1DIPC   C1A25073  28.361   9.529   3.099 -0.0479  0.1837 -0.0043
    1DIPC   D2A25074  28.515   9.839   3.385 -0.0841  0.0814 -0.0291
    1DIPC   D3A25075  28.764  10.130   3.290 -0.1326  0.1616  0.1525
    1DIPC   C4A25076  28.586  10.340   2.979 -0.0869 -0.1788  0.3668
    1DIPC   C1B25077  27.564   9.765   3.120  0.0473  0.0486 -0.2062
    1DIPC   D2B25078  27.198   9.914   3.447  0.0121  0.1351  0.1177
    1DIPC   D3B25079  26.900   9.714   3.547  0.0738  0.0211 -0.0465
    1DIPC   C4B25080  26.943   9.688   3.958  0.1146  0.0740 -0.0892
    1DIPC   NC325081  17.774  20.850   2.503 -0.1360 -0.0349  0.1496
    1DIPC   PO425082  18.102  20.701   2.481  0.2674 -0.0056  0.4131
    1DIPC   GL125083  18.297  20.554   2.885  0.0330  0.0329 -0.2507
    1DIPC   GL225084  18.671  20.519   2.857  0.2833  0.2109  0.0583
    1DIPC   C1A25085  18.438  20.600   3.341  0.0468  0.0705 -0.0936
    1DIPC   D2A25086  18.295  20.576   3.717 -0.1717 -0.4299 -0.0736
    1DIPC   D3A25087  18.386  20.779   4.131  0.0339 -0.0879 -0.2444
    1DIPC   C4A25088  18.062  20.700   4.323  0.0042  0.1263  0.1088
    1DIPC   C1B25089  18.774  20.927   3.133 -0.2497  0.1175 -0.1254
    1DIPC   D2B25090  18.767  21.393   3.328 -0.0136 -0.1319  0.1684
    1DIPC   D3B25091  18.782  21.505   3.699  0.1487  0.1383 -0.0322
    1DIPC   C4B25092  19.079  21.896   3.763 -0.1920 -0.1728  0.0678
    1DIPC   NC325093   3.454  28.104   3.022 -0.1457  0.1253  0.1887
    1DIPC   PO425094   3.853  27.925   2.869  0.2324  0.0205 -0.0814
    1DIPC   GL125095   3.668  27.740   3.289 -0.3234 -0.1525 -0.1360
    1DIPC   GL225096   3.545  27.498   3.236 -0.1703  0.0110  0.1536
    1DIPC   C1A25097   3.792  27.901   3.734  0.0631  0.0015 -0.1633
    1DIPC   D2A25098   3.703  28.118   4.083  0.3061  0.2080  0.0592
    1DIPC   D3A25099   3.486  27.767   4.081  0.0470  0.4919 -0.3545
    1DIPC   C4A25100   3.163  27.635   4.294 -0.0171  0.0385  0.0944
    1DIPC   C1B25101   3.779  27.146   3.373 -0.2953  0.0956 -0.1894
    1DIPC   D2B25102   4.103  26.904   3.492  0.0504  0.4110  0.0145
    1DIPC   D3B25103   4.382  27.230   3.592 -0.0557 -0.0616  0.0498
    1DIPC   C4B25104   4.777  27.240   3.853  0.0833  0.0351  0.1317
    1DIPC   NC325105  12.771   4.750   3.739 -0.0964  0.2561  0.1721
    1DIPC   PO425106  12.361   4.841   3.641  0.0472  0.0179 -0.5016
    1DIPC   GL125107  12.115   5.172   3.859  0.0294 -0.2824  0.2170
    1DIPC   GL225108  12.194   5.174   4.161  0.3247  0.0237  0.0975
    1DIPC   C1A25109  11.922   5.403   3.854  0.0390 -0.0743  0.0889
    1DIPC   D2A25110  11.488   5.551   4.005  0.1678 -0.0467  0.1574
    1DIPC   D3A25111  11.499   5.370   4.382 -0.0854  0.2271 -0.1616
    1DIPC   C4A25112  11.561   5.601   4.713  0.0952  0.1275 -0.0114
    1DIPC   C1B25113  12.002   5.197   4.585 -0.1409 -0.0145  0.1871
    1DIPC   D2B25114  11.795   5.163   5.102  0.1036  0.3537  0.0668
    1DIPC   D3B25115  11.369   4.958   5.125  0.1631  0.0008  0.1085
    1DIPC   C4B25116  11.167   5.167   5.509 -0.0156  0.2762 -0.0188
    1DIPC   NC325117  28.130  30.149   2.071 -0.3380 -0.1799 -0.0146
    1DIPC   PO425118  27.885  30.361   2.547 -0.2258 -0.1784 -0.0366
    1DIPC   GL125119  27.696  30.634   2.999 -0.1056  0.1025 -0.0380
    1DIPC   GL225120  27.565  30.305   3.152 -0.0471  0.1548 -0.0574
    1DIPC   C1A25121  27.988  30.649   3.351 -0.0495 -0.1128  0.1163
    1DIPC   D2A25122  28.072  30.904   3.683 -0.1036 -0.0332 -0.3464
    1DIPC   D3A25123  28.184  30.478   3.900 -0.0390 -0.3751 -0.2000
    1DIPC   C4A25124  28.534  30.442   4.196  0.0534  0.0977  0.0041
    1DIPC   C1B25125  27.531  30.247   3.606 -0.2512 -0.0574 -0.2302
    1DIPC   D2B25126  27.255  30.229   3.992 -0.0008 -0.0499  0.0270
    1DIPC   D3B25127  27.631  29.987   4.104  0.1503 -0.2067  0.2990
    1DIPC   C4B25128  27.896  30.261   4.304  0.0851  0.0000 -0.0479
    1DIPC   NC325129   6.059  14.782   2.793  0.0479  0.1244 -0.0736
    1DIPC   PO425130   5.940  14.360   2.888  0.1984 -0.2066  0.0232
    1DIPC   GL125131   6.070  14.550   3.289  0.0499  0.1919 -0.0812
    1DIPC   GL225132   6.196  14.510   3.551  0.0434  0.0065  0.1220
    1DIPC   C1A25133   5.948  14.890   3.496 -0.1226  0.0673  0.1498
    1DIPC   D2A25134   5.951  14.991   3.879 -0.1282 -0.3009  0.1099
    1DIPC   D3A25135   5.833  14.796   4.280  0.1284  0.2428  0.2169
    1DIPC   C4A25136   5.612  14.526   4.680 -0.1667  0.0367 -0.1162
    1DIPC   C1B25137   6.398  14.452   3.844 -0.1722 -0.0959 -0.2592
    1DIPC   D2B25138   6.467  14.307   4.337 -0.0085 -0.0647 -0.1064
    1DIPC   D3B25139   6.793  14.506   4.414 -0.2017 -0.1957  0.1913
    1DIPC   C4B25140   6.682  14.507   4.885 -0.4244 -0.2588  0.1210
    1DIPC   NC325141   4.992   1.313   3.357  0.0394  0.1426 -0.1365
    1DIPC   PO425142   5.065   1.337   3.755 -0.3780 -0.2090 -0.0114
    1DIPC   GL125143   4.967   1.469   4.203  0.3071  0.1185 -0.0002
    1DIPC   GL225144   4.745   1.317   4.283 -0.0893  0.3932 -0.0834
    1DIPC   C1A25145   5.178   1.381   4.631 -0.0989  0.0172  0.0334
    1DIPC   D2A25146   5.386   0.938   4.669  0.1293 -0.1845  0.0637
    1DIPC   D3A25147   5.760   0.771   4.410 -0.2347 -0.2284 -0.3076
    1DIPC   C4A25148   6.243   0.785   4.479 -0.1419 -0.0344  0.0437
    1DIPC   C1B25149   4.819   0.978   4.575  0.0156  0.1203  0.0978
    1DIPC   D2B25150   4.677   0.738   4.989 -0.1367 -0.2133  0.1958
    1DIPC   D3B25151   5.108   0.738   5.232  0.1737  0.0465  0.1249
    1DIPC   C4B25152   5.490   1.031   5.201  0.2389  0.0684 -0.0945
    1DIPC   NC325153  28.425  23.014   2.277 -0.3146  0.1716 -0.1751
    1DIPC   PO425154  28.183  22.756   2.562  0.2169  0.1835 -0.0523
    1DIPC   GL125155  28.181  22.720   3.033  0.0891 -0.0632 -0.2398
    1DIPC   GL225156  28.206  22.305   2.986 -0.1406  0.1400  0.3233
    1DIPC   C1A25157  28.373  22.670   3.390  0.0136 -0.3734 -0.1545
    1DIPC   D2A25158  28.354  22.478   3.774  0.0415  0.3054 -0.0491
    1DIPC   D3A25159  28.481  22.255   4.189 -0.2036  0.0157  0.2017
    1DIPC   C4A25160  28.856  22.317   4.493 -0.0017  0.0062  0.3518
    1DIPC   C1B25161  28.046  22.297   3.471  0.1375  0.0081  0.2624
    1DIPC   D2B25162  27.777  21.962   3.512 -0.2594 -0.2835  0.0717
    1DIPC   D3B25163  27.945  21.865   3.851  0.1064  0.0922 -0.0026
    1DIPC   C4B25164  27.981  22.136   4.218 -0.2083  0.0939 -0.0597
    1DIPC   NC325165  27.311  17.755   1.854  0.0671  0.0338  0.1723
    1DIPC   PO425166  27.648  18.051   1.948 -0.2071 -0.3618  0.2615
    1DIPC   GL125167  27.505  17.883   2.281  0.3927  0.1432  0.0140
    1DIPC   GL225168  27.393  17.975   2.527 -0.0336  0.2873  0.0423
    1DIPC   C1A25169  27.329  17.530   2.512 -0.3154  0.2057  0.1355
    1DIPC   D2A25170  27.281  17.319   2.962 -0.1651 -0.1744  0.0645
    1DIPC   D3A25171  27.201  17.327   3.470 -0.1614  0.0128  0.0405
    1DIPC   C4A25172  27.518  17.139   3.728 -0.0045 -0.0470  0.0293
    1DIPC   C1B25173  27.345  18.165   2.904 -0.2652 -0.3545 -0.1192
    1DIPC   D2B25174  27.359  18.243   3.318 -0.2475  0.0672  0.5016
    1DIPC   D3B25175  27.511  17.931   3.542 -0.1716  0.3104  0.1699
    1DIPC   C4B25176  27.647  17.561   3.438 -0.0225 -0.0284  0.0794
    1DIPC   NC325177  17.891  28.918   3.294  0.0857  0.1781 -0.4892
    1DIPC   PO425178  18.049  28.376   3.230  0.0309 -0.0988 -0.2073
    1DIPC   GL125179  17.717  28.191   3.496 -0.2932 -0.1919 -0.1848
    1DIPC   GL225180  17.525  28.492   3.452  0.0157 -0.0007  0.2006
    1DIPC   C1A25181  17.273  28.171   3.745 -0.2128 -0.0849  0.1670
    1DIPC   D2A25182  17.190  28.131   4.216  0.0770 -0.2033 -0.1267
    1DIPC   D3A25183  17.399  28.217   4.605  0.2159 -0.3969 -0.1439
    1DIPC   C4A25184  17.759  27.946   4.812  0.1601 -0.2471  0.0036
    1DIPC   C1B25185  17.734  28.451   3.933  0.1382 -0.0648  0.0437
    1DIPC   D2B25186  17.799  28.233   4.274 -0.0191  0.0541 -0.0641
    1DIPC   D3B25187  17.626  27.967   4.104  0.1452  0.2450 -0.1188
    1DIPC   C4B25188  17.884  27.740   3.854  0.0414 -0.1734  0.1897
    1DIPC   NC325189   5.684  11.083   3.190  0.0804 -0.2588 -0.0737
    1DIPC   PO425190   5.948  11.501   3.294  0.1843  0.0244  0.0212
    1DIPC   GL125191   5.702  11.226   3.686  0.2537  0.0208  0.2582
    1DIPC   GL225192   5.656  10.926   3.654 -0.1571 -0.1287  0.1757
    1DIPC   C1A25193   5.256  11.206   3.882  0.3244 -0.0770  0.1999
    1DIPC   D2A25194   5.043  11.337   4.344  0.2719 -0.1936  0.1681
    1DIPC   D3A25195   5.053  10.949   4.602 -0.4062 -0.2091 -0.0291
    1DIPC   C4A25196   5.295  10.743   4.739  0.0349  0.4532 -0.1680
    1DIPC   C1B25197   5.303  10.726   3.795  0.2431 -0.0122  0.0373
    1DIPC   D2B25198   5.253  10.391   4.144  0.0978 -0.1485  0.2133
    1DIPC   D3B25199   4.827  10.574   4.341 -0.1533 -0.1961 -0.0178
    1DIPC   C4B25200   4.512  10.815   4.632 -0.1930  0.0377 -0.3198
    1DIPC   NC325201  19.745  24.405   2.796 -0.3609  0.1078 -0.3296
    1DIPC   PO425202  19.758  24.757   3.156  0.0619 -0.1025  0.0322
    1DIPC   GL125203  19.808  24.697   3.523  0.3935 -0.0715  0.1239
    1DIPC   GL225204  19.807  24.371   3.604  0.0344  0.2537 -0.0954
    1DIPC   C1A25205  19.961  24.752   3.957  0.1531 -0.0110  0.0098
    1DIPC   D2A25206  19.789  24.684   4.317  0.0569 -0.0631  0.1087
    1DIPC   D3A25207  20.043  24.403   4.508 -0.0605 -0.2190 -0.1677
    1DIPC   C4A25208  20.266  24.506   4.815 -0.0153 -0.1916  0.2227
    1DIPC   C1B25209  19.560  24.270   3.997  0.4340  0.0166  0.2668
    1DIPC   D2B25210  19.255  23.998   4.110  0.0315  0.1937  0.1778
    1DIPC   D3B25211  19.501  23.679   4.193 -0.3157 -0.1458  0.0188
    1DIPC   C4B25212  19.819  23.465   4.214  0.2518 -0.0314  0.0441
    1DIPC   NC325213  22.244   5.092   2.862 -0.1076 -0.2962  0.0249
    1DIPC   PO425214  22.722   5.121   2.924 -0.2477 -0.2259  0.0031
    1DIPC   GL125215  22.785   5.008   3.340  0.0955 -0.4069 -0.1877
    1DIPC   GL225216  22.555   5.201   3.478  0.1997  0.1337  0.1221
    1DIPC   C1A25217  22.977   5.131   3.709 -0.1799  0.2166  0.1288
    1DIPC   D2A25218  23.235   5.073   4.035 -0.1480 -0.0183  0.1827
    1DIPC   D3A25219  23.206   5.163   4.467  0.2400 -0.2407 -0.0900
    1DIPC   C4A25220  23.144   4.796   4.707  0.2515  0.0132  0.1001
    1DIPC   C1B25221  22.570   5.114   3.902  0.0817  0.0869 -0.0381
    1DIPC   D2B25222  22.587   4.850   4.209  0.0811 -0.0443 -0.2626
    1DIPC   D3B25223  22.106   4.864   4.320  0.0383 -0.0296 -0.0395
    1DIPC   C4B25224  21.830   4.747   3.972  0.2856  0.1458 -0.0566
    1DIPC   NC325225  17.918  23.325   3.138 -0.0485  0.2143  0.0324
    1DIPC   PO425226  17.744  22.919   2.956 -0.1472 -0.0711  0.0557
    1DIPC   GL125227  17.760  22.902   3.385 -0.1862 -0.1916 -0.0984
    1DIPC   GL225228  17.753  23.200   3.571 -0.0147  0.2149 -0.0688
    1DIPC   C1A25229  17.792  22.723   3.837 -0.2035  0.1944  0.0340
    1DIPC   D2A25230  17.537  22.419   4.136  0.0279 -0.0422  0.0249
    1DIPC   D3A25231  17.573  22.763   4.381 -0.2741 -0.0154  0.0748
    1DIPC   C4A25232  17.888  23.014   4.232 -0.0264  0.4701  0.1499
    1DIPC   C1B25233  17.600  23.201   3.918 -0.1746 -0.1642  0.0181
    1DIPC   D2B25234  17.252  23.312   4.192 -0.0536 -0.1030  0.0225
    1DIPC   D3B25235  17.441  23.249   4.621 -0.2118 -0.0647  0.2280
    1DIPC   C4B25236  17.508  23.562   4.960  0.0536  0.3252 -0.2928
    1DIPC   NC325237  15.830   7.768   3.361 -0.1963 -0.1568  0.5930
    1DIPC   PO425238  16.121   8.039   3.146 -0.0370  0.1423 -0.0522
    1DIPC   GL125239  16.071   8.177   3.583  0.0077 -0.0042  0.0904
    1DIPC   GL225240  16.378   8.131   3.667 -0.0430 -0.0349  0.1267
    1DIPC   C1A25241  16.088   8.432   3.963  0.3164 -0.1065 -0.0831
    1DIPC   D2A25242  16.418   8.645   4.215  0.1063 -0.2398  0.0583
    1DIPC   D3A25243  16.711   8.355   4.117  0.2470 -0.2277 -0.1158
    1DIPC   C4A25244  16.910   8.298   4.568 -0.1258 -0.2992 -0.0083
    1DIPC   C1B25245  16.498   8.500   3.483  0.1930 -0.3932  0.1387
    1DIPC   D2B25246  16.647   8.788   3.783  0.1149 -0.0937  0.4009
    1DIPC   D3B25247  16.789   8.950   4.153  0.2324 -0.0402 -0.3755
    1DIPC   C4B25248  16.763   8.786   4.602 -0.1939 -0.0341 -0.0559
    1DIPC   NC325249   1.663  13.512   2.246 -0.4415 -0.1711  0.2407
    1DIPC   PO425250   1.554  13.839   2.012 -0.0097  0.2777 -0.0196
    1DIPC   GL125251   1.526  14.265   2.199  0.0263  0.2103 -0.0282
    1DIPC   GL225252   1.235  14.405   2.310  0.0777  0.2215 -0.1157
    1DIPC   C1A25253   1.600  14.359   2.663 -0.0937  0.3009 -0.1193
    1DIPC   D2A25254   1.608  14.435   3.081  0.0673 -0.3191  0.0330
    1DIPC   D3A25255   1.801  14.560   3.509  0.3027 -0.1273  0.0211
    1DIPC   C4A25256   1.598  14.465   3.899 -0.1579 -0.1980  0.2531
    1DIPC   C1B25257   1.089  14.165   2.653  0.1681 -0.0705  0.0107
    1DIPC   D2B25258   1.026  13.689   2.752  0.0209 -0.2015 -0.2825
    1DIPC   D3B25259   0.850  13.794   3.185 -0.1125 -0.1517 -0.1325
    1DIPC   C4B25260   0.656  13.537   3.488  0.0273  0.1567  0.2665
    1DIPC   NC325261   6.211  24.155   1.838 -0.0360 -0.0638 -0.0357
    1DIPC   PO425262   5.729  24.112   1.948  0.0581  0.1176  0.0127
    1DIPC   GL125263   5.342  24.031   2.192  0.0910  0.0521 -0.4287
    1DIPC   GL225264   5.483  23.766   2.301 -0.1213 -0.0099  0.2163
    1DIPC   C1A25265   4.989  23.780   2.582  0.0669 -0.0674  0.0820
    1DIPC   D2A25266   5.048  23.401   2.945  0.2099 -0.3247 -0.0793
    1DIPC   D3A25267   4.945  23.052   3.252 -0.0604 -0.3645 -0.2604
    1DIPC   C4A25268   4.820  22.637   3.111  0.1706  0.3406  0.1831
    1DIPC   C1B25269   5.880  23.803   2.567  0.0284 -0.1614  0.0171
    1DIPC   D2B25270   6.145  23.938   2.875  0.1914  0.1422 -0.0164
    1DIPC   D3B25271   5.741  24.108   2.993 -0.0003  0.1276  0.3719
    1DIPC   C4B25272   5.402  23.993   2.722 -0.1848 -0.0793  0.2308
    1DIPC   NC325273  15.119   2.848   3.366  0.1060 -0.3367 -0.1029
    1DIPC   PO425274  14.858   2.512   3.721  0.0308  0.1594 -0.3873
    1DIPC   GL125275  14.762   2.653   4.073  0.0201  0.1358  0.1481
    1DIPC   GL225276  14.576   2.706   4.427 -0.0064  0.1844 -0.1118
    1DIPC   C1A25277  15.027   2.611   4.455  0.0156  0.1241  0.0724
    1DIPC   D2A25278  15.006   2.321   4.782  0.0908  0.0030 -0.1057
    1DIPC   D3A25279  14.555   2.425   4.870  0.1683 -0.2063 -0.0027
    1DIPC   C4A25280  14.231   2.073   4.924  0.0660  0.0817 -0.5644
    1DIPC   C1B25281  14.656   2.285   4.408 -0.1020  0.1879  0.1893
    1DIPC   D2B25282  14.319   1.892   4.339 -0.0607 -0.0521 -0.2577
    1DIPC   D3B25283  14.468   1.456   4.375 -0.0540 -0.0141  0.1343
    1DIPC   C4B25284  14.896   1.371   4.308 -0.0042  0.0937  0.1155
    1DIPC   NC325285  23.492   5.782   3.597 -0.1215 -0.2011  0.0977
    1DIPC   PO425286  23.491   6.197   3.636  0.2660 -0.0797 -0.0880
    1DIPC   GL125287  23.373   6.388   3.999 -0.1299 -0.5202  0.1673
    1DIPC   GL225288  23.654   6.217   4.200  0.2324  0.1147  0.2514
    1DIPC   C1A25289  23.325   6.758   4.302  0.0500  0.4524 -0.0401
    1DIPC   D2A25290  23.466   6.990   4.639 -0.1605 -0.1231  0.1138
    1DIPC   D3A25291  23.738   6.852   5.015  0.0545 -0.0617  0.1866
    1DIPC   C4A25292  24.163   6.708   4.960  0.0893 -0.1076 -0.0697
    1DIPC   C1B25293  23.707   6.011   4.512  0.0012  0.0740 -0.1722
    1DIPC   D2B25294  23.879   5.623   4.619  0.0727 -0.1074  0.0290
    1DIPC   D3B25295  23.602   5.339   4.744 -0.2021 -0.2027 -0.4650
    1DIPC   C4B25296  23.511   5.578   5.057  0.5106  0.2348  0.0012
    1DIPC   NC325297   3.896   1.855   3.155 -0.1085 -0.2033  0.0870
    1DIPC   PO425298   4.047   2.252   3.264 -0.0035  0.0494  0.0106
    1DIPC   GL125299   4.043   2.434   3.733 -0.0187 -0.1361 -0.0450
    1DIPC   GL225300   3.972   2.155   3.982  0.3762 -0.2316  0.1102
    1DIPC   C1A25301   4.159   2.622   4.102  0.2438 -0.2167 -0.2091
    1DIPC   D2A25302   4.587   2.838   4.329  0.0957  0.1673  0.0122
    1DIPC   D3A25303   4.627   2.942   4.879 -0.2020 -0.2402 -0.1257
    1DIPC   C4A25304   4.671   3.058   5.291 -0.1607 -0.0842 -0.1860
    1DIPC   C1B25305   4.314   2.206   4.309  0.2737 -0.1358 -0.1349
    1DIPC   D2B25306   4.697   2.354   4.436 -0.2381  0.0017 -0.0344
    1DIPC   D3B25307   4.497   2.463   4.789 -0.1020  0.1615 -0.2178
    1DIPC   C4B25308   4.116   2.161   4.810 -0.1162  0.2473  0.1869
    1DIPC   NC325309  14.427   0.254   3.770 -0.1107 -0.1199 -0.0648
    1DIPC   PO425310  14.260   0.733   3.958  0.0122  0.1287 -0.1404
    1DIPC   GL125311  14.251   0.889   4.401  0.1039  0.0310 -0.1199
    1DIPC   GL225312  14.059   1.155   4.396  0.2928 -0.0097  0.0015
    1DIPC   C1A25313  14.342   1.201   4.836  0.3067 -0.1621  0.3017
    1DIPC   D2A25314  14.457   1.530   5.040 -0.0393  0.3737  0.1443
    1DIPC   D3A25315  14.720   1.808   4.816  0.2453 -0.2935  0.1219
    1DIPC   C4A25316  14.903   1.860   4.360  0.1224 -0.0121  0.2786
    1DIPC   C1B25317  13.672   1.379   4.362  0.2236 -0.1556  0.1075
    1DIPC   D2B25318  13.171   1.489   4.295  0.0368 -0.0465 -0.1742
    1DIPC   D3B25319  13.131   1.019   4.350  0.1095  0.0712  0.1678
    1DIPC   C4B25320  12.798   0.602   4.325 -0.1305 -0.3735 -0.1097
    1DIPC   NC325321  22.698   2.421   2.599 -0.0851  0.0530  0.2238
    1DIPC   PO425322  22.820   2.291   3.000 -0.0598  0.1207 -0.2285
    1DIPC   GL125323  22.542   2.395   3.313 -0.0777  0.3380  0.0973
    1DIPC   GL225324  22.536   2.088   3.367 -0.0569  0.3735 -0.0675
    1DIPC   C1A25325  22.542   2.582   3.678 -0.0944  0.0520 -0.0201
    1DIPC   D2A25326  22.448   2.524   4.072 -0.1719  0.1812  0.4500
    1DIPC   D3A25327  22.298   2.929   4.186  0.2749 -0.0162  0.1982
    1DIPC   C4A25328  21.947   3.027   4.573 -0.1652 -0.1113 -0.4982
    1DIPC   C1B25329  22.492   1.651   3.627  0.0584 -0.1421 -0.0316
    1DIPC   D2B25330  22.807   1.398   3.824 -0.0579 -0.1058  0.2064
    1DIPC   D3B25331  22.531   1.513   4.221  0.0235  0.1061  0.1582
    1DIPC   C4B25332  22.638   1.663   4.678 -0.2342 -0.2335  0.5721
    1DIPC   NC325333  26.338  12.959   1.844  0.0334 -0.3114  0.1038
    1DIPC   PO425334  26.155  13.372   1.803  0.1909  0.0151  0.1178
    1DIPC   GL125335  26.225  13.418   2.280 -0.1455 -0.3124 -0.0869
    1DIPC   GL225336  26.368  13.141   2.404 -0.1224 -0.0363 -0.2147
    1DIPC   C1A25337  26.009  13.431   2.702  0.0291 -0.1027  0.0065
    1DIPC   D2A25338  25.839  13.601   3.138 -0.0835  0.0176  0.0738
    1DIPC   D3A25339  26.205  13.784   3.109 -0.2116  0.2209  0.2389
    1DIPC   C4A25340  26.499  13.596   2.797  0.1939 -0.2220  0.0510
    1DIPC   C1B25341  26.567  13.097   2.769  0.0120 -0.1906  0.0687
    1DIPC   D2B25342  26.628  13.130   3.152  0.2109  0.1544  0.3661
    1DIPC   D3B25343  26.263  13.245   3.142  0.2953 -0.2453  0.0887
    1DIPC   C4B25344  26.079  13.266   3.584  0.0049  0.0974  0.1786
    1DIPC   NC325345  21.538  26.506   3.108 -0.0561  0.0373  0.0625
    1DIPC   PO425346  21.735  26.949   3.112 -0.1449  0.3688 -0.1531
    1DIPC   GL125347  21.628  26.844   3.461 -0.2263  0.0135 -0.0751
    1DIPC   GL225348  21.900  26.795   3.674 -0.2355  0.1716  0.0515
    1DIPC   C1A25349  21.389  26.887   3.712  0.2016  0.2142  0.0836
    1DIPC   D2A25350  20.967  26.972   3.697  0.3200 -0.0931  0.1843
    1DIPC   D3A25351  20.674  26.816   3.922  0.0564  0.1173  0.0325
    1DIPC   C4A25352  20.251  26.919   3.810  0.0198 -0.0080 -0.0073
    1DIPC   C1B25353  21.850  26.944   3.998  0.1158 -0.0587  0.2574
    1DIPC   D2B25354  21.470  27.037   4.192  0.2106  0.1237 -0.0199
    1DIPC   D3B25355  21.012  27.062   4.227 -0.0620 -0.3098  0.1178
    1DIPC   C4B25356  20.892  26.973   4.692  0.0090  0.1420  0.1671
    1DIPC   NC325357  25.852   1.691   1.903 -0.2904  0.3815 -0.0296
    1DIPC   PO425358  25.714   1.805   2.363 -0.2584  0.0639 -0.0530
    1DIPC   GL125359  26.062   1.914   2.719  0.0482  0.2217  0.0360
    1DIPC   GL225360  26.197   2.211   2.820  0.0959 -0.0853  0.3082
    1DIPC   C1A25361  26.071   1.654   3.148 -0.1207 -0.1863  0.0850
    1DIPC   D2A25362  26.091   1.500   3.622 -0.0938  0.2087  0.0073
    1DIPC   D3A25363  26.284   1.196   3.351 -0.2153 -0.2541 -0.0495
    1DIPC   C4A25364  25.940   1.196   3.137  0.2035  0.0428 -0.0656
    1DIPC   C1B25365  26.032   2.182   3.214  0.0319  0.0765 -0.0498
    1DIPC   D2B25366  25.737   2.352   3.503 -0.1958  0.1379  0.1415
    1DIPC   D3B25367  25.449   2.111   3.871  0.2983  0.0209  0.0222
    1DIPC   C4B25368  25.064   2.301   4.084  0.1618 -0.1934 -0.0527
    1DIPC   NC325369  20.719   3.918   3.360  0.0349 -0.2176 -0.0652
    1DIPC   PO425370  21.057   4.191   3.077  0.0790 -0.1446  0.2819
    1DIPC   GL125371  21.353   4.249   3.314  0.1567 -0.0971  0.1400
    1DIPC   GL225372  21.059   4.264   3.672 -0.0933  0.2482  0.1336
    1DIPC   C1A25373  21.582   4.175   3.746  0.0903  0.2306 -0.2735
    1DIPC   D2A25374  21.870   3.810   3.983  0.1055  0.1078  0.3823
    1DIPC   D3A25375  21.565   4.027   4.189  0.1273 -0.2402 -0.1680
    1DIPC   C4A25376  21.167   3.894   4.054  0.4713 -0.0340 -0.0483
    1DIPC   C1B25377  20.792   4.305   4.107  0.0137 -0.1438  0.2302
    1DIPC   D2B25378  20.672   4.453   4.531 -0.2687 -0.2031  0.1671
    1DIPC   D3B25379  20.835   4.268   4.883 -0.0847  0.2870 -0.0684
    1DIPC   C4B25380  20.458   4.332   5.042  0.1780  0.2047 -0.1332
    1DIPC   NC325381  26.511   2.241   2.397 -0.0071 -0.2877 -0.0060
    1DIPC   PO425382  26.412   2.724   2.475  0.0046 -0.2853 -0.0648
    1DIPC   GL125383  26.619   2.492   2.826  0.1393 -0.2651 -0.4129
    1DIPC   GL225384  26.938   2.555   2.689 -0.1240  0.2646 -0.1005
    1DIPC   C1A25385  26.497   2.587   3.212  0.1178  0.1943 -0.2933
    1DIPC   D2A25386  26.302   2.353   3.656  0.3873 -0.0139  0.3387
    1DIPC   D3A25387  26.079   2.636   3.968 -0.2228 -0.1340 -0.0877
    1DIPC   C4A25388  26.165   3.109   3.834  0.0089  0.0895  0.2400
    1DIPC   C1B25389  27.314   2.563   3.098  0.0836 -0.3053 -0.0096
    1DIPC   D2B25390  27.680   2.630   3.314  0.4072  0.2610 -0.2685
    1DIPC   D3B25391  27.448   2.443   3.700  0.4011 -0.0189 -0.1185
    1DIPC   C4B25392  27.448   2.659   4.182 -0.0384  0.0959 -0.2818
    1DIPC   NC325393  24.181   6.843   2.501  0.0129  0.3239 -0.1820
    1DIPC   PO425394  24.620   6.842   2.671  0.1124 -0.0401  0.0277
    1DIPC   GL125395  24.929   7.026   3.113 -0.3312  0.2606 -0.0585
    1DIPC   GL225396  25.180   7.268   3.135  0.0052 -0.0104 -0.0154
    1DIPC   C1A25397  24.882   6.921   3.560 -0.1278 -0.3837 -0.0122
    1DIPC   D2A25398  24.842   6.745   3.939 -0.0036  0.0583 -0.1857
    1DIPC   D3A25399  25.020   6.965   4.375  0.0627 -0.1732  0.1311
    1DIPC   C4A25400  25.258   6.740   4.670  0.0904 -0.1564  0.4680
    1DIPC   C1B25401  24.931   7.433   3.556  0.0531  0.1145  0.1653
    1DIPC   D2B25402  25.050   7.366   3.945  0.0803  0.2021  0.2004
    1DIPC   D3B25403  25.098   7.683   4.185 -0.0934 -0.0300  0.1078
    1DIPC   C4B25404  25.499   7.945   4.300  0.2836  0.2541  0.0810
    1DIPC   NC325405  13.669  27.417   3.066  0.0762  0.2273  0.1008
    1DIPC   PO425406  13.532  27.048   3.333  0.0007 -0.0044  0.0159
    1DIPC   GL125407  13.468  26.983   3.740  0.3631  0.0079 -0.0935
    1DIPC   GL225408  13.447  27.251   3.881  0.2027  0.1647  0.2553
    1DIPC   C1A25409  13.624  26.789   4.099  0.0995  0.2606  0.2768
    1DIPC   D2A25410  13.844  26.704   4.358  0.4319 -0.3467 -0.0400
    1DIPC   D3A25411  14.146  26.819   4.115  0.1234 -0.1894  0.2526
    1DIPC   C4A25412  14.461  26.604   4.252 -0.0122 -0.0331 -0.2076
    1DIPC   C1B25413  13.432  27.432   4.236  0.0364  0.1345  0.0624
    1DIPC   D2B25414  13.544  27.384   4.711 -0.1084 -0.1223 -0.0717
    1DIPC   D3B25415  13.575  27.374   5.223 -0.3465 -0.2816  0.2614
    1DIPC   C4B25416  14.048  27.291   5.339  0.0386  0.0164 -0.0559
    1DIPC   NC325417  14.265   1.971   3.786  0.2461  0.1605 -0.1065
    1DIPC   PO425418  13.914   1.953   4.007  0.2481 -0.1614  0.1358
    1DIPC   GL125419  13.834   1.857   4.335 -0.0926 -0.1239  0.0284
    1DIPC   GL225420  13.869   2.143   4.540  0.1330  0.0217  0.1769
    1DIPC   C1A25421  14.060   1.687   4.740 -0.1207 -0.0532 -0.1416
    1DIPC   D2A25422  13.873   1.739   5.142 -0.3530 -0.3560  0.0021
    1DIPC   D3A25423  14.151   1.769   5.466 -0.1490  0.0726  0.0388
    1DIPC   C4A25424  14.609   1.537   5.541  0.2103 -0.0782  0.1557
    1DIPC   C1B25425  13.669   2.109   4.838 -0.1734 -0.0446 -0.1062
    1DIPC   D2B25426  13.466   2.344   5.184  0.2761 -0.1510 -0.2534
    1DIPC   D3B25427  13.436   2.659   5.447  0.1988  0.1803  0.0118
    1DIPC   C4B25428  13.165   3.069   5.432  0.2779 -0.0222  0.0323
    1DIPC   NC325429   4.912  22.130   1.472 -0.3892 -0.1320 -0.1321
    1DIPC   PO425430   4.966  22.543   1.742  0.0265 -0.1777 -0.0058
    1DIPC   GL125431   4.854  22.436   2.194  0.1385 -0.0859 -0.2618
    1DIPC   GL225432   5.118  22.551   2.423  0.4039 -0.1599  0.1735
    1DIPC   C1A25433   4.596  22.591   2.545  0.3180 -0.0210 -0.0448
    1DIPC   D2A25434   4.314  22.892   2.849 -0.4054 -0.1133  0.2590
    1DIPC   D3A25435   3.960  22.743   2.510  0.0464 -0.1221 -0.1796
    1DIPC   C4A25436   4.173  22.477   2.215 -0.0956  0.0323 -0.1376
    1DIPC   C1B25437   5.071  22.349   2.798  0.0017 -0.1959 -0.0213
    1DIPC   D2B25438   5.197  22.275   3.212  0.0809 -0.1029 -0.1867
    1DIPC   D3B25439   5.012  21.914   3.463  0.2026  0.0942 -0.2478
    1DIPC   C4B25440   5.231  21.851   3.756  0.1088  0.1191 -0.1890
    1DIPC   NC325441  22.348   7.709   3.252 -0.2863  0.0228 -0.2964
    1DIPC   PO425442  22.241   8.188   3.160 -0.0144 -0.2834 -0.2251
    1DIPC   GL125443  22.365   8.407   3.453 -0.1630  0.1343  0.1449
    1DIPC   GL225444  22.310   8.682   3.513  0.0888 -0.3108  0.1601
    1DIPC   C1A25445  22.592   8.342   3.891 -0.1305 -0.0075 -0.1201
    1DIPC   D2A25446  22.819   8.361   4.402  0.1998  0.1119  0.0090
    1DIPC   D3A25447  23.209   8.672   4.489 -0.2917  0.1440  0.0970
    1DIPC   C4A25448  23.148   9.067   4.608  0.4133  0.1947 -0.2170
    1DIPC   C1B25449  22.124   8.730   3.868  0.0331 -0.1146 -0.1923
    1DIPC   D2B25450  22.103   9.034   4.134 -0.4703 -0.1527  0.0108
    1DIPC   D3B25451  22.244   9.434   4.215  0.0016  0.1286  0.0757
    1DIPC   C4B25452  22.250   9.764   4.039  0.2507 -0.0996 -0.1816
    1DIPC   NC325453  26.240  19.167   1.779 -0.2152 -0.0190  0.2408
    1DIPC   PO425454  26.137  18.740   1.838 -0.1115  0.1673 -0.3442
    1DIPC   GL125455  25.977  18.553   2.184  0.0417  0.1085  0.2426
    1DIPC   GL225456  26.192  18.755   2.387  0.0225 -0.1499 -0.0645
    1DIPC   C1A25457  26.082  18.284   2.467  0.0113 -0.0384  0.0107
    1DIPC   D2A25458  25.919  18.180   2.918  0.1207 -0.0412 -0.1621
    1DIPC   D3A25459  26.073  18.369   3.243 -0.0168 -0.1208 -0.0602
    1DIPC   C4A25460  26.360  18.142   3.478  0.0877 -0.0593  0.3480
    1DIPC   C1B25461  26.186  18.603   2.788  0.0828 -0.1077 -0.4396
    1DIPC   D2B25462  26.528  18.555   3.072  0.1794 -0.0115  0.1106
    1DIPC   D3B25463  26.557  18.592   3.574  0.3099  0.3068 -0.0202
    1DIPC   C4B25464  26.200  18.528   3.781  0.0965 -0.1129  0.1038
    1DIPC   NC325465   3.468  29.750   3.936  0.0264 -0.0335  0.0781
    1DIPC   PO425466   3.010  29.750   3.758  0.0306  0.0217  0.0647
    1DIPC   GL125467   2.987  30.006   4.066 -0.0696 -0.1501 -0.2233
    1DIPC   GL225468   3.031  30.353   4.146  0.0313  0.0991  0.0697
    1DIPC   C1A25469   3.018  29.829   4.535 -0.0601 -0.0013  0.0384
    1DIPC   D2A25470   3.098  29.851   4.972 -0.1010  0.0195  0.0432
    1DIPC   D3A25471   2.733  29.829   4.942 -0.2092 -0.2381 -0.2490
    1DIPC   C4A25472   2.539  29.811   4.505  0.0235  0.0607  0.1264
    1DIPC   C1B25473   3.030  30.259   4.692  0.1534  0.2091 -0.2062
    1DIPC   D2B25474   2.957  30.306   5.088  0.1388  0.1150  0.0581
    1DIPC   D3B25475   3.184  30.471   5.437  0.0008 -0.3923 -0.2312
    1DIPC   C4B25476   3.509  30.191   5.455  0.0193 -0.0564  0.2274
    1DIPC   NC325477   8.718   7.946   3.654 -0.1189 -0.0597 -0.0679
    1DIPC   PO425478   9.077   7.692   3.662  0.1551 -0.0547 -0.1348
    1DIPC   GL125479   9.105   7.964   4.045  0.1334  0.2453  0.1618
    1DIPC   GL225480   8.883   7.833   4.308 -0.0073 -0.4469 -0.2780
    1DIPC   C1A25481   9.031   8.304   4.330  0.1105  0.1700 -0.2471
    1DIPC   D2A25482   9.162   8.183   4.820  0.1535 -0.0851 -0.0039
    1DIPC   D3A25483   8.963   8.273   5.269 -0.4877 -0.1004  0.0094
    1DIPC   C4A25484   8.896   8.317   5.739  0.5516  0.0829  0.0716
    1DIPC   C1B25485   9.063   7.711   4.684 -0.3791 -0.0777 -0.0991
    1DIPC   D2B25486   9.114   7.791   5.135 -0.0654 -0.0657  0.0022
    1DIPC   D3B25487   9.428   8.014   5.368 -0.3291  0.1569 -0.3174
    1DIPC   C4B25488   9.382   8.319   5.737  0.2481 -0.0679  0.1054
    1DIPC   NC325489  10.791  29.238   2.947 -0.1299 -0.1010  0.3428
    1DIPC   PO425490  10.495  28.869   3.139 -0.0368  0.1482  0.2930
    1DIPC   GL125491  10.629  29.089   3.469 -0.4086  0.0657 -0.1296
    1DIPC   GL225492  10.484  29.403   3.665  0.2265 -0.0370 -0.0453
    1DIPC   C1A25493  10.738  28.981   3.911 -0.4241 -0.1677  0.1729
    1DIPC   D2A25494  10.663  28.731   4.232  0.0678  0.0722 -0.2287
    1DIPC   D3A25495  10.869  29.105   4.555  0.1784  0.0928  0.2144
    1DIPC   C4A25496  11.024  29.475   4.293  0.1078 -0.4982 -0.0795
    1DIPC   C1B25497  10.465  29.294   4.134 -0.2298 -0.1417  0.0701
    1DIPC   D2B25498  10.461  29.471   4.566  0.1011  0.0481 -0.0302
    1DIPC   D3B25499  10.423  29.037   4.779 -0.2768  0.1882  0.1968
    1DIPC   C4B25500  10.318  28.806   5.145 -0.1125  0.1517  0.1106
    1DIPC   NC325501  19.176   5.882   2.733 -0.0618  0.1131 -0.2751
    1DIPC   PO425502  19.135   6.055   3.186 -0.1102 -0.1975  0.0112
    1DIPC   GL125503  18.852   6.321   3.559  0.2840 -0.1251 -0.2814
    1DIPC   GL225504  18.851   6.182   3.838 -0.3871 -0.2926  0.2862
    1DIPC   C1A25505  18.790   6.665   3.938 -0.0312 -0.0595  0.5603
    1DIPC   D2A25506  18.703   6.804   4.365 -0.0576 -0.2834 -0.0042
    1DIPC   D3A25507  18.581   6.537   4.698  0.1202  0.0979  0.1108
    1DIPC   C4A25508  18.942   6.368   4.873 -0.2018 -0.3306 -0.2570
    1DIPC   C1B25509  19.122   6.321   4.177 -0.1404  0.1069 -0.1453
    1DIPC   D2B25510  19.487   6.434   4.423 -0.2808  0.0369 -0.1188
    1DIPC   D3B25511  19.403   6.509   4.819  0.0433 -0.2751 -0.0543
    1DIPC   C4B25512  19.732   6.702   5.095 -0.4827 -0.1090  0.1567
    1DIPC   NC325513   0.982   3.342   3.004  0.0797 -0.1152  0.2745
    1DIPC   PO425514   0.623   3.394   3.165  0.4025  0.3779 -0.0038
    1DIPC   GL125515   0.564   3.358   3.666 -0.1433 -0.0514 -0.1416
    1DIPC   GL225516   0.844   3.224   3.550 -0.0415 -0.4302 -0.1360
    1DIPC   C1A25517   0.513   3.392   4.161  0.0297  0.0077 -0.0340
    1DIPC   D2A25518   0.408   3.406   4.652  0.1344  0.1208 -0.0934
    1DIPC   D3A25519   0.931   3.295   4.836 -0.0760  0.2818 -0.2063
    1DIPC   C4A25520   1.214   3.313   5.172 -0.2543 -0.1390  0.1020
    1DIPC   C1B25521   0.993   3.213   3.902 -0.2118 -0.2134  0.1041
    1DIPC   D2B25522   0.881   3.060   4.379  0.0820 -0.0220  0.1978
    1DIPC   D3B25523   1.007   3.468   4.410 -0.1625  0.1666  0.0644
    1DIPC   C4B25524   1.324   3.560   4.772 -0.0055  0.1284  0.0740
    1DIPC   NC325525  27.490   8.447   1.935 -0.5107  0.0111  0.1786
    1DIPC   PO425526  27.443   8.387   2.337 -0.1782 -0.0268  0.0975
    1DIPC   GL125527  27.604   8.502   2.737  0.0303  0.1130 -0.1099
    1DIPC   GL225528  27.444   8.667   2.959 -0.1452 -0.0493 -0.0640
    1DIPC   C1A25529  27.825   8.351   3.070  0.1478 -0.3725  0.0863
    1DIPC   D2A25530  27.907   8.266   3.409 -0.2043 -0.1537  0.0394
    1DIPC   D3A25531  27.836   7.877   3.695 -0.3213 -0.1148  0.0637
    1DIPC   C4A25532  27.405   7.903   3.826  0.1509  0.2109 -0.2616
    1DIPC   C1B25533  27.804   8.771   3.306 -0.1691 -0.2046  0.1214
    1DIPC   D2B25534  28.042   8.718   3.708  0.1554 -0.0819  0.0101
    1DIPC   D3B25535  28.009   8.978   4.008  0.2105 -0.1869  0.0695
    1DIPC   C4B25536  27.992   9.326   3.797 -0.2828  0.0686  0.1352
    1DIPC   NC325537  19.233   1.630   2.976  0.1534  0.0186  0.1993
    1DIPC   PO425538  18.769   1.526   3.366  0.0467  0.0938  0.1084
    1DIPC   GL125539  18.744   1.336   3.788 -0.2673  0.0285 -0.0430
    1DIPC   GL225540  18.444   1.218   3.997 -0.1069 -0.0356  0.0693
    1DIPC   C1A25541  18.898   1.101   4.210 -0.0280  0.1678  0.1686
    1DIPC   D2A25542  19.128   0.707   4.361  0.4769  0.1147 -0.1609
    1DIPC   D3A25543  18.955   0.966   4.709  0.1191  0.4398 -0.1130
    1DIPC   C4A25544  19.104   1.347   5.030 -0.1537 -0.1126  0.1014
    1DIPC   C1B25545  18.402   1.198   4.506  0.1280  0.4068 -0.2458
    1DIPC   D2B25546  18.453   1.415   4.912  0.1800 -0.1511  0.0551
    1DIPC   D3B25547  18.729   1.601   5.250  0.0347 -0.1871  0.1301
    1DIPC   C4B25548  18.864   1.286   5.635  0.0238  0.4477  0.0483
    1DIPC   NC325549   1.730  23.324   1.847  0.0058 -0.3501  0.0141
    1DIPC   PO425550   1.327  23.511   1.871 -0.1249 -0.1115  0.2569
    1DIPC   GL125551   1.152  23.509   2.222 -0.1142  0.1408 -0.1872
    1DIPC   GL225552   1.036  23.188   2.340 -0.0471 -0.2188 -0.2180
    1DIPC   C1A25553   1.368  23.694   2.683 -0.5250  0.1127 -0.1093
    1DIPC   D2A25554   1.864  23.591   2.817  0.1210  0.2454  0.0374
    1DIPC   D3A25555   1.612  23.640   3.129 -0.0715 -0.0172 -0.3793
    1DIPC   C4A25556   1.601  23.396   3.498 -0.1831  0.0508 -0.2218
    1DIPC   C1B25557   1.180  22.819   2.568 -0.2785 -0.0950  0.2939
    1DIPC   D2B25558   1.195  22.634   2.864  0.4770 -0.0652 -0.0625
    1DIPC   D3B25559   0.909  22.929   2.960  0.1242  0.0362  0.0831
    1DIPC   C4B25560   0.474  22.777   3.091  0.2037  0.0997 -0.4090
    1DIPC   NC325561  16.034   3.289   2.960  0.3251  0.1800 -0.1436
    1DIPC   PO425562  15.913   3.245   3.437 -0.3025 -0.1536  0.0321
    1DIPC   GL125563  16.190   3.357   3.877  0.3319  0.0225 -0.0207
    1DIPC   GL225564  16.273   3.172   4.192  0.0017  0.1106 -0.1323
    1DIPC   C1A25565  16.273   3.654   4.286  0.1590  0.0574  0.1235
    1DIPC   D2A25566  16.491   3.852   4.620 -0.0503  0.1553  0.0591
    1DIPC   D3A25567  16.207   3.947   4.879 -0.1347 -0.1107  0.0851
    1DIPC   C4A25568  16.377   4.302   5.194  0.1352  0.0786 -0.4721
    1DIPC   C1B25569  16.399   3.286   4.594  0.0248  0.0886  0.1729
    1DIPC   D2B25570  16.435   3.524   4.953 -0.0611 -0.1520 -0.2969
    1DIPC   D3B25571  16.392   3.384   5.429  0.0973  0.0342 -0.0462
    1DIPC   C4B25572  15.988   3.399   5.703 -0.1528 -0.2718 -0.0725
    1DIPC   NC325573  23.957  23.373   3.025 -0.0833  0.2162  0.1508
    1DIPC   PO425574  23.862  23.722   3.150  0.1057  0.2193  0.0619
    1DIPC   GL125575  23.817  23.940   3.415  0.0436  0.2112  0.0103
    1DIPC   GL225576  24.092  24.158   3.594  0.0230 -0.1341 -0.1172
    1DIPC   C1A25577  23.601  23.919   3.842 -0.1260 -0.0012  0.2179
    1DIPC   D2A25578  23.387  24.175   4.129  0.3106  0.0184  0.2969
    1DIPC   D3A25579  23.435  24.227   4.642 -0.3053 -0.3187 -0.0861
    1DIPC   C4A25580  23.086  24.301   5.011  0.0193 -0.1079  0.2788
    1DIPC   C1B25581  24.432  24.446   3.599 -0.1294  0.2733  0.0022
    1DIPC   D2B25582  24.714  24.733   3.567  0.4013  0.0393 -0.0378
    1DIPC   D3B25583  24.464  24.849   3.963 -0.0239  0.3082  0.0770
    1DIPC   C4B25584  24.242  24.799   4.413  0.0053  0.1025 -0.0953
    1DIPC   NC325585   8.126   2.514   3.302 -0.2717  0.4632  0.1038
    1DIPC   PO425586   7.898   2.180   3.181  0.1050  0.0536 -0.0431
    1DIPC   GL125587   7.986   2.241   3.654  0.0740  0.0399  0.1120
    1DIPC   GL225588   8.243   2.482   3.855  0.1632 -0.0906 -0.1496
    1DIPC   C1A25589   7.955   2.097   4.001  0.1896  0.0037 -0.1006
    1DIPC   D2A25590   8.308   1.972   4.229 -0.0009 -0.0168 -0.0448
    1DIPC   D3A25591   8.380   1.712   3.948 -0.3810  0.0167 -0.1983
    1DIPC   C4A25592   8.518   1.650   3.602 -0.2618 -0.0443 -0.0094
    1DIPC   C1B25593   8.100   2.467   4.278 -0.0111 -0.3241 -0.0754
    1DIPC   D2B25594   7.935   2.631   4.650 -0.0697  0.5523  0.0190
    1DIPC   D3B25595   8.310   2.490   4.837 -0.0161 -0.0577  0.0640
    1DIPC   C4B25596   8.563   2.259   4.547 -0.5461  0.0109 -0.1300
    1DIPC   NC325597  25.192  25.168   2.717  0.1477  0.2804 -0.0276
    1DIPC   PO425598  24.899  25.292   3.018  0.0872 -0.0049  0.1306
    1DIPC   GL125599  24.529  25.111   3.271  0.2021  0.1019 -0.0764
    1DIPC   GL225600  24.247  24.985   3.429 -0.2608 -0.1776  0.0985
    1DIPC   C1A25601  24.732  25.207   3.662 -0.2694  0.1904  0.0219
    1DIPC   D2A25602  24.600  25.413   4.034  0.1711  0.0904  0.1691
    1DIPC   D3A25603  24.541  25.289   4.399  0.1036 -0.3003  0.1083
    1DIPC   C4A25604  24.664  25.072   4.825  0.3084  0.4278 -0.0943
    1DIPC   C1B25605  23.903  24.815   3.607  0.0813 -0.1478 -0.1269
    1DIPC   D2B25606  23.900  24.790   4.067 -0.0479 -0.0654  0.0094
    1DIPC   D3B25607  24.103  24.403   4.053 -0.0491  0.0001 -0.1471
    1DIPC   C4B25608  24.487  24.345   4.330 -0.1195 -0.0438 -0.0398
    1DIPC   NC325609  14.103   6.757   3.889 -0.0079 -0.1853  0.2771
    1DIPC   PO425610  13.818   6.878   3.735 -0.1323  0.0214 -0.1394
    1DIPC   GL125611  13.705   7.020   4.217  0.0675  0.4451 -0.1424
    1DIPC   GL225612  13.424   6.824   4.395 -0.0324  0.1058 -0.0112
    1DIPC   C1A25613  13.782   7.114   4.635 -0.2328  0.3453  0.0852
    1DIPC   D2A25614  13.838   6.821   5.009  0.2768  0.0103 -0.4249
    1DIPC   D3A25615  13.500   6.628   4.916 -0.0549 -0.1844 -0.1069
    1DIPC   C4A25616  13.375   6.253   5.185 -0.2454  0.0095  0.0370
    1DIPC   C1B25617  13.741   6.590   4.501 -0.0653  0.1601 -0.0133
    1DIPC   D2B25618  14.037   6.469   4.644  0.2591  0.0969  0.1647
    1DIPC   D3B25619  14.248   6.847   4.438 -0.0806  0.0710  0.0574
    1DIPC   C4B25620  14.622   6.911   4.533  0.0594 -0.0149  0.0345
    1DIPC   NC325621  19.793  23.205   2.043 -0.1185  0.0303 -0.2814
    1DIPC   PO425622  19.851  22.883   2.464 -0.0105 -0.1022 -0.0198
    1DIPC   GL125623  19.882  22.666   2.853  0.0992  0.0192  0.1967
    1DIPC   GL225624  20.184  22.492   3.128 -0.0169  0.1877 -0.0230
    1DIPC   C1A25625  19.703  22.521   3.175 -0.0913  0.0439  0.0248
    1DIPC   D2A25626  19.461  22.816   3.349  0.1365 -0.0928 -0.0112
    1DIPC   D3A25627  19.459  22.713   3.808 -0.0213  0.1655  0.2842
    1DIPC   C4A25628  19.317  22.705   4.060  0.3099 -0.2124  0.1758
    1DIPC   C1B25629  20.442  22.531   3.469  0.0823  0.1548  0.1019
    1DIPC   D2B25630  20.510  22.190   3.747 -0.0601  0.0265 -0.2360
    1DIPC   D3B25631  20.587  22.162   4.212  0.0316  0.0263 -0.0733
    1DIPC   C4B25632  20.135  22.083   4.403  0.0440 -0.0673  0.0464
    1DIPC   NC325633  26.482  22.348   1.697  0.2020  0.1784 -0.5203
    1DIPC   PO425634  26.588  22.722   2.033 -0.2627 -0.0208 -0.2009
    1DIPC   GL125635  26.550  22.514   2.452  0.0265 -0.0725  0.0216
    1DIPC   GL225636  26.717  22.247   2.602  0.1458 -0.0781  0.1452
    1DIPC   C1A25637  26.388  22.594   2.812 -0.1575 -0.1533  0.1403
    1DIPC   D2A25638  26.459  22.763   3.202  0.2322  0.0486  0.2082
    1DIPC   D3A25639  26.103  22.924   3.498  0.0216 -0.2420 -0.1673
    1DIPC   C4A25640  25.790  23.148   3.354  0.1575  0.0687  0.0209
    1DIPC   C1B25641  26.801  22.311   3.047 -0.4297  0.1041  0.1838
    1DIPC   D2B25642  26.733  22.211   3.494  0.0601  0.1165 -0.2260
    1DIPC   D3B25643  26.792  22.529   3.502 -0.0416  0.0698 -0.2228
    1DIPC   C4B25644  27.085  22.635   3.251 -0.2128  0.0646  0.0258
    1DIPC   NC325645  24.005   9.051   2.703  0.2463  0.2476 -0.2235
    1DIPC   PO425646  24.309   8.791   2.600  0.0774 -0.0720 -0.0555
    1DIPC   GL125647  24.549   8.876   2.928  0.1902  0.1463  0.1181
    1DIPC   GL225648  24.661   8.478   3.033 -0.1598 -0.3775  0.3076
    1DIPC   C1A25649  24.503   8.888   3.370 -0.2093  0.3348 -0.0453
    1DIPC   D2A25650  24.536   8.613   3.719 -0.0105 -0.0975  0.0366
    1DIPC   D3A25651  24.694   9.016   3.873 -0.0178 -0.1486 -0.0147
    1DIPC   C4A25652  24.484   8.922   4.226  0.2785 -0.0705  0.4142
    1DIPC   C1B25653  24.738   8.284   3.394 -0.0530 -0.2358  0.1287
    1DIPC   D2B25654  24.684   8.136   3.822 -0.0902  0.0484  0.4178
    1DIPC   D3B25655  24.682   8.386   4.157  0.0356 -0.0877  0.0562
    1DIPC   C4B25656  24.225   8.541   4.393 -0.1099 -0.0117 -0.1278
    1DIPC   NC325657  24.381  14.583   1.956  0.2783 -0.0344  0.1235
    1DIPC   PO425658  24.781  14.415   1.693 -0.2869  0.3596  0.0663
    1DIPC   GL125659  24.872  14.494   2.210  0.0729  0.0296  0.3548
    1DIPC   GL225660  24.865  14.210   2.351  0.0144  0.3625  0.0479
    1DIPC   C1A25661  24.749  14.876   2.507 -0.1243  0.1207 -0.1968
    1DIPC   D2A25662  24.421  14.931   2.747  0.0081 -0.0344 -0.0815
    1DIPC   D3A25663  24.575  15.371   2.678 -0.0378  0.0072 -0.5332
    1DIPC   C4A25664  24.318  15.731   2.856 -0.2904 -0.1204 -0.0235
    1DIPC   C1B25665  24.848  14.424   2.679  0.2426  0.1778 -0.1295
    1DIPC   D2B25666  25.045  14.715   3.023 -0.0226  0.0158 -0.1044
    1DIPC   D3B25667  25.140  14.885   3.425 -0.2613 -0.1611  0.0297
    1DIPC   C4B25668  25.463  15.184   3.530 -0.0622  0.2423 -0.1575
    1DIPC   NC325669  26.128  23.796   2.867  0.0617  0.1726  0.1694
    1DIPC   PO425670  26.303  24.094   2.738 -0.0282  0.2443  0.0565
    1DIPC   GL125671  26.307  24.101   3.192  0.0289  0.1815 -0.2766
    1DIPC   GL225672  26.176  23.839   3.360 -0.1064  0.1352  0.0117
    1DIPC   C1A25673  26.304  24.258   3.685 -0.1524  0.2016 -0.1444
    1DIPC   D2A25674  26.414  24.187   4.081 -0.0203  0.1223  0.0045
    1DIPC   D3A25675  26.143  24.069   4.390  0.1463 -0.2019  0.0221
    1DIPC   C4A25676  26.038  24.201   4.819  0.2526 -0.1884  0.0671
    1DIPC   C1B25677  26.201  23.579   3.771  0.1308 -0.2325 -0.3277
    1DIPC   D2B25678  25.924  23.241   3.827  0.3129 -0.0049  0.0543
    1DIPC   D3B25679  25.704  22.892   3.941 -0.0327  0.1134  0.0681
    1DIPC   C4B25680  25.312  22.905   3.803 -0.0589  0.1900  0.1318
    1DIPC   NC325681  14.400   3.844   3.929 -0.0883 -0.3421 -0.2839
    1DIPC   PO425682  14.792   3.916   3.926 -0.0209  0.0381  0.0629
    1DIPC   GL125683  14.979   3.701   4.256  0.1953 -0.0847 -0.0963
    1DIPC   GL225684  15.295   3.451   4.121  0.3424 -0.3156 -0.4483
    1DIPC   C1A25685  15.112   4.024   4.547  0.0497  0.2118 -0.0901
    1DIPC   D2A25686  15.233   4.204   4.974  0.3508  0.0264 -0.0591
    1DIPC   D3A25687  15.423   3.998   5.402  0.1650  0.3621  0.4072
    1DIPC   C4A25688  15.742   4.184   5.507 -0.0271  0.1014  0.0319
    1DIPC   C1B25689  15.285   3.386   4.547  0.0269 -0.0254  0.0964
    1DIPC   D2B25690  15.021   3.575   4.818 -0.0674  0.3122 -0.0619
    1DIPC   D3B25691  14.619   3.479   4.966 -0.1580  0.0460  0.3550
    1DIPC   C4B25692  14.561   3.328   5.348  0.2072  0.2767  0.1863
    1DIPC   NC325693   1.083  19.599   1.868 -0.0391 -0.0461 -0.0645
    1DIPC   PO425694   0.824  19.935   1.939  0.2652 -0.1984 -0.2733
    1DIPC   GL125695   0.811  20.121   2.364  0.1089 -0.2070 -0.1519
    1DIPC   GL225696   1.009  20.043   2.525 -0.2524  0.2504 -0.1052
    1DIPC   C1A25697   0.685  20.240   2.799 -0.5640 -0.3077 -0.3415
    1DIPC   D2A25698   0.533  20.009   3.213 -0.0699  0.1499  0.0227
    1DIPC   D3A25699   0.283  20.251   3.481  0.1887  0.2357  0.0939
    1DIPC   C4A25700   0.034  20.100   3.822 -0.0979 -0.2783 -0.1400
    1DIPC   C1B25701   1.058  19.956   2.969 -0.3430  0.1862  0.1243
    1DIPC   D2B25702   0.858  19.669   3.338  0.2451  0.2382  0.1160
    1DIPC   D3B25703   0.892  20.076   3.553 -0.0419 -0.0444  0.0993
    1DIPC   C4B25704   1.002  20.335   3.900  0.0472  0.1592 -0.2172
    1DIPC   NC325705  17.097   9.764   2.763  0.0152  0.3204  0.0030
    1DIPC   PO425706  17.394   9.387   2.721  0.1985 -0.0303 -0.0215
    1DIPC   GL125707  17.542   9.711   3.021  0.2638  0.1720  0.0316
    1DIPC   GL225708  17.227   9.766   3.307  0.0634 -0.0274 -0.2295
    1DIPC   C1A25709  17.722   9.905   3.404 -0.2138 -0.0034 -0.1535
    1DIPC   D2A25710  17.988  10.169   3.604  0.0115  0.0515 -0.0351
    1DIPC   D3A25711  17.964  10.102   4.050 -0.1763  0.3257  0.0334
    1DIPC   C4A25712  18.072   9.635   4.230  0.0265 -0.0465  0.5855
    1DIPC   C1B25713  17.202   9.539   3.676  0.4263 -0.3836  0.2427
    1DIPC   D2B25714  17.363   9.297   3.894  0.1001  0.0526  0.0595
    1DIPC   D3B25715  17.638   9.381   4.394 -0.2128 -0.4437  0.0763
    1DIPC   C4B25716  17.699   9.864   4.540 -0.1824 -0.0911 -0.2498
    1DIPC   NC325717  16.429   9.443   2.784 -0.1096  0.2476  0.0641
    1DIPC   PO425718  16.872   9.326   2.689 -0.2894 -0.2375 -0.1147
    1DIPC   GL125719  16.817   9.399   3.137  0.0908  0.1563 -0.0798
    1DIPC   GL225720  16.532   9.337   3.288  0.1365 -0.0108  0.0941
    1DIPC   C1A25721  16.724   9.757   3.420 -0.1107 -0.0916  0.3078
    1DIPC   D2A25722  16.801  10.190   3.268  0.4404 -0.1260  0.2629
    1DIPC   D3A25723  17.173  10.008   3.727 -0.0779  0.1370  0.2125
    1DIPC   C4A25724  17.522  10.195   3.845  0.1211  0.3402 -0.2583
    1DIPC   C1B25725  16.286   9.213   3.658 -0.2184  0.0793  0.2095
    1DIPC   D2B25726  16.359   9.199   4.106  0.0761 -0.0598  0.1939
    1DIPC   D3B25727  16.047   9.036   4.407  0.0385  0.1109  0.1165
    1DIPC   C4B25728  15.988   8.645   4.460  0.1396 -0.2363  0.1089
    1DIPC   NC325729  10.756   3.431   3.275 -0.0656  0.3814  0.1824
    1DIPC   PO425730  10.469   3.116   3.500 -0.0015 -0.4760 -0.1617
    1DIPC   GL125731  10.039   2.971   3.690  0.0952  0.0865  0.3192
    1DIPC   GL225732   9.714   2.983   3.599  0.0271  0.0473  0.0006
    1DIPC   C1A25733   9.760   2.611   3.900  0.0702  0.1284 -0.2954
    1DIPC   D2A25734   9.557   2.487   4.279 -0.1269 -0.1524  0.4162
    1DIPC   D3A25735   9.542   2.466   4.739  0.2879 -0.0863 -0.1043
    1DIPC   C4A25736   9.839   2.256   4.919  0.1344 -0.2103  0.4299
    1DIPC   C1B25737   9.888   3.345   3.937 -0.1434 -0.1751 -0.2552
    1DIPC   D2B25738   9.840   3.739   4.328 -0.2624 -0.0805  0.1701
    1DIPC   D3B25739   9.644   3.628   4.649  0.2272  0.1265 -0.0980
    1DIPC   C4B25740   9.691   3.850   5.094  0.0905  0.0619 -0.2136
    1DIPC   NC325741   5.277  22.149   2.072 -0.1430 -0.0411 -0.2002
    1DIPC   PO425742   5.470  21.794   2.190 -0.2657 -0.2911 -0.1912
    1DIPC   GL125743   5.144  21.771   2.438 -0.1762  0.2085 -0.1568
    1DIPC   GL225744   4.966  22.002   2.476 -0.0094 -0.0746 -0.2404
    1DIPC   C1A25745   4.971  21.805   2.953  0.3376  0.2177 -0.0256
    1DIPC   D2A25746   4.647  22.134   3.066  0.1957  0.1262  0.2044
    1DIPC   D3A25747   4.672  22.286   3.479  0.1110  0.2219  0.1147
    1DIPC   C4A25748   4.535  22.037   3.760  0.0608  0.1835  0.0794
    1DIPC   C1B25749   4.559  22.058   2.510  0.3308  0.3139 -0.0673
    1DIPC   D2B25750   4.313  21.871   2.802  0.0240 -0.0379  0.0025
    1DIPC   D3B25751   4.226  22.335   2.798  0.0927 -0.1583 -0.0726
    1DIPC   C4B25752   4.316  22.601   3.220  0.1522  0.1865 -0.4430
    1DIPC   NC325753   1.462  24.537   2.078  0.1607 -0.0740 -0.0519
    1DIPC   PO425754   1.843  24.816   1.991  0.2153 -0.0182 -0.0382
    1DIPC   GL125755   1.803  24.733   2.473 -0.0375  0.1332 -0.0754
    1DIPC   GL225756   1.891  24.980   2.735  0.0470  0.1861  0.1892
    1DIPC   C1A25757   1.545  24.640   2.725  0.0223  0.2624 -0.1719
    1DIPC   D2A25758   1.253  24.628   3.074  0.0545 -0.0749 -0.0803
    1DIPC   D3A25759   1.500  24.720   3.433 -0.2571  0.1323  0.1916
    1DIPC   C4A25760   1.272  24.951   3.799 -0.2667 -0.0136 -0.2238
    1DIPC   C1B25761   1.990  25.154   3.123  0.2073 -0.0514  0.1778
    1DIPC   D2B25762   1.919  25.193   3.475 -0.0909  0.4985 -0.0848
    1DIPC   D3B25763   1.627  25.415   3.840  0.0968 -0.1577  0.1685
    1DIPC   C4B25764   1.085  25.435   3.770  0.0200  0.0201 -0.1913
    1DIPC   NC325765  27.478  20.660   2.577 -0.2325  0.0789 -0.0833
    1DIPC   PO425766  27.893  20.475   2.417  0.2516  0.3609  0.1524
    1DIPC   GL125767  27.903  20.489   2.807 -0.0486 -0.0823 -0.0208
    1DIPC   GL225768  28.241  20.515   2.763 -0.0634  0.0551  0.0507
    1DIPC   C1A25769  27.832  20.230   3.137 -0.0183 -0.0990 -0.0322
    1DIPC   D2A25770  27.960  20.079   3.590 -0.1874  0.3306 -0.1588
    1DIPC   D3A25771  28.272  19.852   3.890  0.3807  0.2157 -0.1142
    1DIPC   C4A25772  28.453  19.539   3.871 -0.2958  0.1301 -0.0094
    1DIPC   C1B25773  28.336  20.310   3.159 -0.0242 -0.0697 -0.1233
    1DIPC   D2B25774  28.457  20.386   3.563 -0.3080  0.1614  0.2895
    1DIPC   D3B25775  28.190  20.697   3.476  0.1185  0.1604  0.1151
    1DIPC   C4B25776  27.783  20.540   3.565 -0.1395 -0.0521  0.1213
    1DIPC   NC325777  19.501   8.018   2.786  0.2074  0.0092 -0.0777
    1DIPC   PO425778  19.858   7.832   2.935 -0.1404  0.1840  0.3067
    1DIPC   GL125779  20.140   7.725   3.186 -0.0575  0.0558  0.1774
    1DIPC   GL225780  20.313   8.048   3.248  0.1968 -0.3924  0.3101
    1DIPC   C1A25781  20.334   7.670   3.641  0.0197  0.3671 -0.5197
    1DIPC   D2A25782  20.632   7.807   3.841  0.2192  0.0733 -0.0941
    1DIPC   D3A25783  20.612   8.089   4.162  0.0294 -0.1796 -0.0622
    1DIPC   C4A25784  20.310   8.002   4.498 -0.0972  0.2980  0.1875
    1DIPC   C1B25785  19.985   7.959   3.570  0.1731 -0.1373  0.1051
    1DIPC   D2B25786  20.090   8.078   4.024  0.0494 -0.2178 -0.0266
    1DIPC   D3B25787  19.913   8.566   3.911  0.1869 -0.5068  0.1929
    1DIPC   C4B25788  19.613   8.706   4.205  0.2495  0.0111  0.0277
    1DIPC   NC325789  22.631   1.240   3.078  0.1881  0.3686  0.0127
    1DIPC   PO425790  22.582   0.755   3.244  0.1234  0.0794 -0.0504
    1DIPC   GL125791  22.652   0.891   3.650  0.0068  0.0694 -0.0048
    1DIPC   GL225792  22.967   0.854   3.761  0.1663  0.2047 -0.0008
    1DIPC   C1A25793  22.436   0.917   4.087  0.1120  0.1997  0.0932
    1DIPC   D2A25794  22.302   1.056   4.488 -0.0535 -0.1798 -0.0468
    1DIPC   D3A25795  22.019   0.737   4.413 -0.0096 -0.1319 -0.0435
    1DIPC   C4A25796  21.703   0.506   4.671  0.2445  0.4134  0.2220
    1DIPC   C1B25797  23.134   1.080   4.136 -0.3025 -0.1973 -0.1461
    1DIPC   D2B25798  23.345   0.952   4.488 -0.1443  0.3748 -0.1946
    1DIPC   D3B25799  23.149   0.562   4.413  0.1944  0.0305  0.1090
    1DIPC   C4B25800  23.322   0.175   4.290  0.0284  0.0679 -0.1789
    1DIPC   NC325801  21.895  27.276   2.749 -0.1017 -0.0686 -0.0163
    1DIPC   PO425802  22.207  27.620   2.854  0.1196 -0.0625 -0.3570
    1DIPC   GL125803  22.194  27.746   3.369  0.1698  0.2445 -0.1482
    1DIPC   GL225804  22.472  27.776   3.492  0.1993 -0.1306 -0.1685
    1DIPC   C1A25805  22.065  27.605   3.812  0.0477  0.1535  0.1228
    1DIPC   D2A25806  22.220  27.327   4.040 -0.1891  0.3932 -0.3536
    1DIPC   D3A25807  22.054  27.351   4.351 -0.1305 -0.2795  0.1905
    1DIPC   C4A25808  22.232  27.158   4.802  0.0887  0.0851  0.2806
    1DIPC   C1B25809  22.696  27.464   3.764  0.3883 -0.0073  0.1049
    1DIPC   D2B25810  22.664  27.273   4.200 -0.0299 -0.1766  0.1975
    1DIPC   D3B25811  23.057  27.086   4.401  0.1524 -0.0009  0.0418
    1DIPC   C4B25812  23.186  26.930   4.828  0.4444  0.0630  0.2134
    1DIPC   NC325813  29.702  10.751   2.304  0.0949  0.1363  0.2252
    1DIPC   PO425814  29.187  10.913   2.431  0.2673  0.3150 -0.1298
    1DIPC   GL125815  29.398  10.857   2.779 -0.2616  0.1589  0.0207
    1DIPC   GL225816  29.600  10.709   2.898  0.1693  0.1146  0.0357
    1DIPC   C1A25817  29.516  11.201   3.028 -0.0744 -0.1058 -0.0697
    1DIPC   D2A25818  29.608  11.419   3.400  0.0107  0.2887  0.3913
    1DIPC   D3A25819  29.407  11.356   3.794  0.0962  0.0245 -0.1137
    1DIPC   C4A25820  29.275  10.960   4.030  0.0646 -0.1758 -0.0205
    1DIPC   C1B25821  29.608  10.626   3.232  0.0380  0.0615  0.1466
    1DIPC   D2B25822  29.336  10.705   3.633  0.0236 -0.2784 -0.0448
    1DIPC   D3B25823  29.271  10.322   3.393  0.1587 -0.1114 -0.0109
    1DIPC   C4B25824  29.203   9.881   3.470 -0.0746  0.3674  0.1327
    1DIPC   NC325825  29.218  14.468   1.355  0.1880  0.1401 -0.2654
    1DIPC   PO425826  28.876  14.438   1.743 -0.1282 -0.1089  0.2990
    1DIPC   GL125827  28.817  14.365   2.164  0.1126  0.1286  0.1525
    1DIPC   GL225828  29.093  14.607   2.251 -0.0702 -0.0798  0.1242
    1DIPC   C1A25829  28.631  14.071   2.496 -0.2199 -0.1153 -0.2590
    1DIPC   D2A25830  28.508  13.675   2.656  0.4741 -0.0371 -0.1097
    1DIPC   D3A25831  28.482  13.684   3.067 -0.0775 -0.1522 -0.1264
    1DIPC   C4A25832  28.380  13.216   3.185  0.0612 -0.2165  0.1461
    1DIPC   C1B25833  29.020  14.417   2.674 -0.0466 -0.0287 -0.0830
    1DIPC   D2B25834  29.293  14.213   2.920 -0.0367  0.2507  0.1052
    1DIPC   D3B25835  29.288  14.036   3.386  0.0953  0.1686 -0.0653
    1DIPC   C4B25836  29.472  13.622   3.549 -0.1035  0.1656 -0.2124
    1DIPC   NC325837  26.068  28.092   2.620  0.0300 -0.2248  0.2287
    1DIPC   PO425838  25.710  27.924   2.773  0.1980 -0.2937  0.0907
    1DIPC   GL125839  25.552  27.654   3.095  0.1469  0.0484  0.0565
    1DIPC   GL225840  25.348  27.784   3.231  0.5351  0.0042  0.0436
    1DIPC   C1A25841  25.614  27.401   3.481 -0.1993  0.0178 -0.3126
    1DIPC   D2A25842  25.853  27.320   3.813 -0.0189 -0.1841 -0.1340
    1DIPC   D3A25843  25.627  27.240   4.242 -0.1826  0.1263  0.1486
    1DIPC   C4A25844  25.876  27.221   4.626 -0.0440  0.2839 -0.1312
    1DIPC   C1B25845  25.646  27.891   3.544  0.3603 -0.2415 -0.1288
    1DIPC   D2B25846  26.113  27.786   3.685 -0.1575 -0.1095 -0.0475
    1DIPC   D3B25847  26.169  28.028   4.138  0.0510 -0.4103 -0.0984
    1DIPC   C4B25848  26.059  27.873   4.555  0.0262 -0.4476  0.0514
    1DIPC   NC325849  12.710   1.072   3.552 -0.1038  0.3580  0.0786
    1DIPC   PO425850  12.630   0.628   3.475  0.2278  0.2037 -0.1170
    1DIPC   GL125851  12.355   0.494   3.769  0.0288 -0.2417  0.1561
    1DIPC   GL225852  12.487   0.255   3.945  0.1780 -0.2350 -0.0183
    1DIPC   C1A25853  11.994   0.343   4.137  0.0626  0.2225  0.0669
    1DIPC   D2A25854  11.711   0.054   4.241 -0.1616 -0.0237 -0.1199
    1DIPC   D3A25855  11.989  -0.066   4.474  0.1496 -0.0663 -0.2921
    1DIPC   C4A25856  11.903   0.206   4.783  0.4318  0.1294  0.3310
    1DIPC   C1B25857  12.399   0.122   4.311 -0.1085 -0.2047 -0.1321
    1DIPC   D2B25858  12.442  -0.162   4.687  0.0923  0.0098  0.0446
    1DIPC   D3B25859  12.641  -0.083   5.115 -0.1475 -0.0494 -0.2605
    1DIPC   C4B25860  13.066   0.032   5.333 -0.2022 -0.1166 -0.0647
    1DIPC   NC325861  21.284   2.937   2.865  0.1126 -0.1185  0.0018
    1DIPC   PO425862  21.651   2.795   3.058  0.0186 -0.1128 -0.2977
    1DIPC   GL125863  21.476   2.803   3.465  0.2651  0.1384  0.4131
    1DIPC   GL225864  21.168   2.885   3.334 -0.2901 -0.2526  0.0670
    1DIPC   C1A25865  21.451   2.866   3.935  0.4043  0.1789  0.1753
    1DIPC   D2A25866  21.453   3.031   4.379  0.2420  0.2534  0.2388
    1DIPC   D3A25867  21.529   2.732   4.672 -0.3276 -0.1526 -0.0417
    1DIPC   C4A25868  21.286   2.504   4.585 -0.1774 -0.0442 -0.0325
    1DIPC   C1B25869  20.986   2.813   3.629 -0.0333 -0.1552  0.1771
    1DIPC   D2B25870  20.867   3.054   3.888 -0.0281  0.2588  0.0129
    1DIPC   D3B25871  20.550   2.714   3.913 -0.1649  0.1092 -0.1182
    1DIPC   C4B25872  20.305   2.387   4.286 -0.3449 -0.0148 -0.2054
    1DIPC   NC325873   6.619  27.002   2.518 -0.0540 -0.0076 -0.1813
    1DIPC   PO425874   6.847  26.686   2.463 -0.0183 -0.1755 -0.2788
    1DIPC   GL125875   6.843  26.660   2.873  0.1373  0.1356 -0.2591
    1DIPC   GL225876   6.559  26.861   3.023 -0.0079 -0.3732  0.1120
    1DIPC   C1A25877   6.822  26.369   3.288  0.0462 -0.3179  0.1629
    1DIPC   D2A25878   6.661  26.133   3.617  0.0070 -0.0306  0.0130
    1DIPC   D3A25879   6.556  25.964   4.119  0.4782 -0.2203  0.1117
    1DIPC   C4A25880   6.394  25.515   4.197  0.0907  0.0754 -0.0764
    1DIPC   C1B25881   6.598  26.934   3.337 -0.0840  0.2144  0.0068
    1DIPC   D2B25882   6.468  26.605   3.653  0.3797 -0.0299  0.2031
    1DIPC   D3B25883   6.800  26.553   3.949  0.2739 -0.1915  0.4534
    1DIPC   C4B25884   7.164  26.439   3.710 -0.2934  0.2696 -0.3609
    1DIPC   NC325885  18.063   7.551   2.475  0.1021 -0.0317  0.0543
    1DIPC   PO425886  18.235   7.966   2.723  0.1996 -0.0616  0.0799
    1DIPC   GL125887  18.289   8.319   3.099  0.1169 -0.3436 -0.3365
    1DIPC   GL225888  17.979   8.553   3.150 -0.2152  0.1113  0.0347
    1DIPC   C1A25889  18.269   8.516   3.528 -0.0897  0.1864 -0.0540
    1DIPC   D2A25890  18.270   8.792   3.906 -0.0550  0.2595 -0.0904
    1DIPC   D3A25891  18.600   8.987   4.114  0.1388  0.0346  0.0983
    1DIPC   C4A25892  18.641   9.183   4.508  0.2305  0.4210 -0.0767
    1DIPC   C1B25893  18.173   8.949   3.268  0.1529  0.0757 -0.1730
    1DIPC   D2B25894  18.474   9.045   3.546  0.1481  0.2727  0.0601
    1DIPC   D3B25895  18.344   9.354   3.878 -0.0169  0.0052 -0.0440
    1DIPC   C4B25896  18.549   9.695   4.120  0.0777  0.2585 -0.1150
    1DIPC   NC325897   6.918  20.339   2.131  0.0850  0.0311 -0.1906
    1DIPC   PO425898   7.335  20.104   2.158  0.3580 -0.0265 -0.0424
    1DIPC   GL125899   7.061  20.082   2.613 -0.0433  0.0691 -0.2429
    1DIPC   GL225900   6.676  20.251   2.598  0.1835 -0.0990 -0.3518
    1DIPC   C1A25901   6.761  19.917   2.945 -0.1478  0.1917  0.1994
    1DIPC   D2A25902   6.681  19.549   3.259  0.0238 -0.3148  0.2363
    1DIPC   D3A25903   6.337  19.749   3.637 -0.1670 -0.1476  0.0515
    1DIPC   C4A25904   6.496  20.107   3.965  0.1050 -0.1043 -0.0556
    1DIPC   C1B25905   6.503  20.632   2.728  0.0338 -0.1833  0.0414
    1DIPC   D2B25906   6.558  20.868   3.121  0.1554 -0.0820 -0.0102
    1DIPC   D3B25907   6.267  20.856   3.542  0.0438  0.2218 -0.2149
    1DIPC   C4B25908   6.414  20.587   3.935 -0.0171 -0.1252 -0.1232
    1DIPC   NC325909  23.505  10.902   2.328  0.1793 -0.0253 -0.3569
    1DIPC   PO425910  23.662  10.365   2.345 -0.1197 -0.0191  0.1702
    1DIPC   GL125911  23.559  10.225   2.652 -0.2104 -0.4024  0.1233
    1DIPC   GL225912  23.805   9.990   2.740 -0.1631  0.0903 -0.0706
    1DIPC   C1A25913  23.371  10.468   3.033  0.1843 -0.1268 -0.0956
    1DIPC   D2A25914  23.239  10.355   3.491  0.2017  0.3030  0.0979
    1DIPC   D3A25915  22.858   9.972   3.422 -0.4400  0.1698 -0.2604
    1DIPC   C4A25916  22.884   9.555   3.304  0.1399 -0.0384 -0.0601
    1DIPC   C1B25917  23.958  10.230   2.962 -0.1815  0.0400  0.0135
    1DIPC   D2B25918  23.755  10.309   3.306 -0.2913  0.2454  0.2994
    1DIPC   D3B25919  24.050  10.211   3.535  0.0194  0.1043 -0.0228
    1DIPC   C4B25920  24.471  10.328   3.599  0.2142  0.1429 -0.3584
    1DIPC   NC325921  29.416  29.334   3.369  0.0001  0.2790  0.0438
    1DIPC   PO425922  29.869  29.607   3.565  0.3192  0.0755  0.0963
    1DIPC   GL125923  30.054  29.326   3.960  0.2614  0.3089 -0.2768
    1DIPC   GL225924  30.333  29.163   3.933  0.0866  0.3050 -0.1134
    1DIPC   C1A25925  30.165  29.095   4.407 -0.2706 -0.1362  0.2034
    1DIPC   D2A25926  30.460  28.816   4.591  0.0090 -0.0051  0.3172
    1DIPC   D3A25927  30.485  28.647   5.006  0.1668 -0.0557  0.0019
    1DIPC   C4A25928  30.405  28.215   5.009 -0.1055 -0.1797  0.1779
    1DIPC   C1B25929  30.612  29.083   4.192  0.0953  0.2990 -0.0674
    1DIPC   D2B25930  30.613  29.289   4.564 -0.2818 -0.2216  0.1616
    1DIPC   D3B25931  30.476  29.603   4.945  0.1574 -0.0668  0.0419
    1DIPC   C4B25932  30.853  29.743   5.125  0.0438  0.1233 -0.0333
    1DIPC   NC325933   3.197  19.259   0.908  0.1389  0.0589 -0.0126
    1DIPC   PO425934   3.106  19.254   1.316  0.2815 -0.1294  0.0337
    1DIPC   GL125935   3.177  19.286   1.721  0.1187 -0.1180  0.3474
    1DIPC   GL225936   3.087  19.492   2.027 -0.1400  0.0348 -0.4829
    1DIPC   C1A25937   3.473  19.023   2.069 -0.0158  0.1491 -0.1465
    1DIPC   D2A25938   3.772  18.682   1.926  0.1560  0.0306 -0.2076
    1DIPC   D3A25939   3.964  18.599   2.313  0.1857  0.0767 -0.0182
    1DIPC   C4A25940   4.385  18.391   2.351 -0.1492 -0.1344 -0.1022
    1DIPC   C1B25941   3.479  19.427   2.442 -0.1019  0.2583  0.0668
    1DIPC   D2B25942   3.510  19.245   2.856  0.0247  0.0095  0.1508
    1DIPC   D3B25943   3.506  19.524   3.102 -0.2405 -0.1370 -0.0062
    1DIPC   C4B25944   3.664  19.590   3.511  0.1354  0.0389  0.0674
    1DIPC   NC325945  24.098  19.355   1.477 -0.0961  0.2838 -0.0760
    1DIPC   PO425946  24.071  19.689   1.740 -0.0210 -0.0482  0.0488
    1DIPC   GL125947  24.213  19.889   2.123 -0.1001 -0.1101 -0.3677
    1DIPC   GL225948  23.970  20.037   2.221  0.2329  0.4552 -0.0039
    1DIPC   C1A25949  24.308  19.788   2.487 -0.0541 -0.0884 -0.0698
    1DIPC   D2A25950  24.024  19.699   2.852 -0.1009 -0.2104 -0.3174
    1DIPC   D3A25951  24.222  19.899   3.175 -0.1219 -0.1992  0.0384
    1DIPC   C4A25952  24.553  20.165   3.013 -0.0062  0.1410 -0.2261
    1DIPC   C1B25953  24.196  20.335   2.532  0.1064  0.3138  0.0736
    1DIPC   D2B25954  24.211  20.539   2.956  0.2321 -0.2034 -0.2205
    1DIPC   D3B25955  24.193  20.469   3.391  0.0375  0.2289  0.2246
    1DIPC   C4B25956  24.530  20.475   3.766  0.2173  0.2355  0.4340
    1DIPC   NC325957   1.384  26.758   2.379 -0.4000  0.0150 -0.1729
    1DIPC   PO425958   1.068  26.855   2.661  0.2891  0.0143 -0.1080
    1DIPC   GL125959   1.255  26.833   3.072  0.0348 -0.0306  0.1252
    1DIPC   GL225960   1.013  26.965   3.278  0.1104 -0.2844  0.1325
    1DIPC   C1A25961   1.447  26.721   3.491  0.1259  0.2563  0.1028
    1DIPC   D2A25962   1.474  26.753   3.929  0.3233 -0.0447  0.1382
    1DIPC   D3A25963   1.674  27.040   4.036 -0.1196 -0.0416  0.4414
    1DIPC   C4A25964   1.942  27.176   4.315  0.2819 -0.0040  0.1330
    1DIPC   C1B25965   0.922  26.815   3.713  0.0173 -0.0161  0.0970
    1DIPC   D2B25966   0.980  26.476   4.074  0.1747 -0.1477 -0.0100
    1DIPC   D3B25967   1.090  26.647   4.508 -0.0670 -0.3201  0.0437
    1DIPC   C4B25968   0.875  26.994   4.660 -0.1556 -0.3211  0.0712
    1DIPC   NC325969   2.710   6.053   3.376 -0.1964  0.2522 -0.0168
    1DIPC   PO425970   3.083   6.079   3.381 -0.0048  0.0731 -0.2833
    1DIPC   GL125971   3.294   5.993   3.782 -0.1610 -0.2514  0.3382
    1DIPC   GL225972   3.630   5.935   3.687 -0.1769 -0.2749  0.0439
    1DIPC   C1A25973   3.502   6.232   4.196 -0.1099  0.2847 -0.1228
    1DIPC   D2A25974   3.530   6.417   4.622 -0.0163 -0.3559  0.0772
    1DIPC   D3A25975   3.913   6.503   4.612 -0.0090  0.0957 -0.1150
    1DIPC   C4A25976   4.099   6.509   5.032  0.1852 -0.3087 -0.0465
    1DIPC   C1B25977   3.684   5.714   4.056 -0.1834  0.2848  0.1935
    1DIPC   D2B25978   3.780   5.373   4.232 -0.2670  0.0639  0.1652
    1DIPC   D3B25979   3.700   5.476   4.557  0.2332  0.1572  0.0871
    1DIPC   C4B25980   3.475   5.216   4.805  0.0109  0.3951 -0.0917
    1DIPC   NC325981  12.266  23.243   2.664 -0.0288 -0.0736  0.1022
    1DIPC   PO425982  11.981  23.581   2.780 -0.1514  0.1159 -0.1043
    1DIPC   GL125983  11.894  23.624   3.214  0.0100 -0.2457  0.2822
    1DIPC   GL225984  12.023  23.794   3.519 -0.1592  0.1737  0.0407
    1DIPC   C1A25985  11.538  23.587   3.467  0.3012 -0.1219 -0.2357
    1DIPC   D2A25986  11.359  23.415   3.919 -0.0742  0.2230  0.3035
    1DIPC   D3A25987  11.281  23.134   4.367  0.2452 -0.0175 -0.0696
    1DIPC   C4A25988  10.846  22.841   4.465 -0.2427  0.0548 -0.0179
    1DIPC   C1B25989  11.878  23.606   3.849  0.0092 -0.0141  0.0787
    1DIPC   D2B25990  11.911  23.570   4.261  0.2501  0.1721 -0.2566
    1DIPC   D3B25991  12.062  23.818   4.523  0.0889 -0.5364 -0.3579
    1DIPC   C4B25992  11.936  24.260   4.467  0.1618  0.0133 -0.1077
    1DIPC   NC325993  13.937  27.182   3.660  0.1307  0.0385 -0.0550
    1DIPC   PO425994  14.133  27.379   3.304  0.1964 -0.0903  0.1071
    1DIPC   GL125995  14.252  27.557   3.702  0.1506 -0.1410 -0.3843
    1DIPC   GL225996  14.221  27.396   4.103  0.1093  0.1617 -0.0240
    1DIPC   C1A25997  14.617  27.675   4.027  0.2481  0.2110 -0.2335
    1DIPC   D2A25998  14.787  27.677   4.469  0.4573  0.0843 -0.1841
    1DIPC   D3A25999  15.021  27.918   4.673  0.1873 -0.1754 -0.1240
    1DIPC   C4A26000  15.006  27.705   5.026  0.0066 -0.1960  0.1479
    1DIPC   C1B26001  13.940  27.228   4.451 -0.1182 -0.1590  0.1452
    1DIPC   D2B26002  14.002  27.335   4.832  0.0701 -0.2720  0.1517
    1DIPC   D3B26003  13.881  27.803   4.833  0.2560  0.2864 -0.2267
    1DIPC   C4B26004  13.671  28.092   5.171  0.1075 -0.1591  0.0050
    1DIPC   NC326005  11.682   4.273   3.216 -0.0759  0.0295  0.0674
    1DIPC   PO426006  11.340   4.448   3.511 -0.3449  0.0266  0.1151
    1DIPC   GL126007  11.238   4.509   3.935 -0.1159  0.1311  0.1170
    1DIPC   GL226008  11.514   4.353   4.216 -0.2095 -0.1430  0.2734
    1DIPC   C1A26009  10.943   4.582   4.321 -0.2725 -0.4179 -0.0190
    1DIPC   D2A26010  11.039   4.185   4.438 -0.1680 -0.0451  0.3490
    1DIPC   D3A26011  11.420   3.851   4.246 -0.1462 -0.0389 -0.0043
    1DIPC   C4A26012  11.808   3.783   4.549 -0.0657  0.2317  0.1343
    1DIPC   C1B26013  11.565   4.146   4.669  0.0348  0.1459  0.1957
    1DIPC   D2B26014  11.191   3.951   4.959 -0.0115  0.1025  0.2161
    1DIPC   D3B26015  10.867   3.666   5.034  0.3705  0.0338  0.1632
    1DIPC   C4B26016  10.423   3.677   5.173 -0.0340 -0.0905  0.1035
    1DIPC   NC326017  18.518  28.237   3.190  0.0385  0.1899 -0.0911
    1DIPC   PO426018  18.745  27.888   3.157  0.1345  0.0028  0.0624
    1DIPC   GL126019  18.787  28.134   3.613  0.0796 -0.2972  0.3509
    1DIPC   GL226020  18.914  28.533   3.592 -0.0665 -0.1315 -0.0710
    1DIPC   C1A26021  18.667  28.189   3.959 -0.0151  0.3287 -0.0559
    1DIPC   D2A26022  18.810  28.402   4.247  0.1590 -0.1425 -0.0380
    1DIPC   D3A26023  18.722  28.764   4.026 -0.1138  0.1454 -0.0564
    1DIPC   C4A26024  18.742  29.148   3.968 -0.1108 -0.0304 -0.2467
    1DIPC   C1B26025  19.190  28.330   3.885  0.0278 -0.0701 -0.0233
    1DIPC   D2B26026  19.480  28.589   4.115 -0.2239 -0.1156  0.0357
    1DIPC   D3B26027  19.474  28.451   4.371 -0.0266  0.1800 -0.1299
    1DIPC   C4B26028  19.275  28.410   4.685  0.0664  0.1399  0.0498
    1DIPC   NC326029  11.579  26.175   2.933  0.0495 -0.1487 -0.0735
    1DIPC   PO426030  11.698  25.796   3.065  0.1114  0.0509 -0.1039
    1DIPC   GL126031  11.748  25.612   3.458  0.0325 -0.0291  0.2308
    1DIPC   GL226032  11.905  25.333   3.445  0.2171  0.2475  0.2861
    1DIPC   C1A26033  11.762  25.605   3.929 -0.3389 -0.1378 -0.2809
    1DIPC   D2A26034  11.878  25.872   4.293 -0.1788  0.0878  0.1361
    1DIPC   D3A26035  12.002  26.035   4.699 -0.0508 -0.1367  0.1884
    1DIPC   C4A26036  12.168  26.363   4.841 -0.0068  0.1039 -0.2026
    1DIPC   C1B26037  11.616  24.919   3.492  0.0186 -0.1702 -0.0631
    1DIPC   D2B26038  11.567  24.505   3.419 -0.0225  0.2970 -0.1519
    1DIPC   D3B26039  11.832  24.663   3.858 -0.4304 -0.0917  0.2550
    1DIPC   C4B26040  11.754  25.010   4.030  0.2031 -0.2247 -0.4805
    1DIPC   NC326041   7.971  14.045   2.369  0.0037 -0.0937 -0.3702
    1DIPC   PO426042   7.819  14.275   2.768 -0.0844  0.3600 -0.3496
    1DIPC   GL126043   7.795  14.513   3.116 -0.3221  0.0246  0.0106
    1DIPC   GL226044   7.495  14.550   3.152 -0.0322 -0.0975  0.3370
    1DIPC   C1A26045   8.034  14.612   3.529 -0.1985 -0.0177  0.0539
    1DIPC   D2A26046   8.354  14.517   3.807 -0.2748 -0.0002  0.1885
    1DIPC   D3A26047   7.953  14.616   4.028 -0.0603  0.1845  0.1284
    1DIPC   C4A26048   8.077  14.678   4.598  0.0731  0.3047  0.0766
    1DIPC   C1B26049   7.532  14.558   3.632 -0.0623 -0.1941  0.2098
    1DIPC   D2B26050   7.451  14.811   4.062 -0.1188  0.1861 -0.1680
    1DIPC   D3B26051   7.731  14.978   4.425 -0.2953 -0.3095  0.1439
    1DIPC   C4B26052   7.626  14.908   4.736 -0.5307 -0.6146 -0.2803
    1DIPC   NC326053  14.557  28.799   2.658  0.2965 -0.1719 -0.0701
    1DIPC   PO426054  14.452  29.111   3.040  0.2771 -0.2212 -0.0423
    1DIPC   GL126055  14.592  29.221   3.500  0.3297  0.0491  0.3158
    1DIPC   GL226056  14.927  29.044   3.467  0.0491 -0.2112  0.1686
    1DIPC   C1A26057  14.405  29.321   3.888  0.1751 -0.1591  0.0206
    1DIPC   D2A26058  14.153  29.127   4.221 -0.0771  0.0460  0.0006
    1DIPC   D3A26059  14.105  29.644   4.243 -0.1544  0.3168  0.1858
    1DIPC   C4A26060  13.595  29.854   4.256  0.1365 -0.1533  0.2175
    1DIPC   C1B26061  15.264  29.010   3.723 -0.1081 -0.1508 -0.0420
    1DIPC   D2B26062  15.610  28.925   4.044 -0.0072  0.1838 -0.4633
    1DIPC   D3B26063  15.946  28.720   4.283  0.0475  0.2217  0.1003
    1DIPC   C4B26064  16.103  28.707   4.774 -0.0571 -0.0313  0.0428
    1DIPC   NC326065   2.991  25.642   2.057 -0.0401 -0.0102  0.0088
    1DIPC   PO426066   2.974  26.031   2.038  0.3318  0.1109 -0.2944
    1DIPC   GL126067   3.225  25.916   2.403 -0.2171 -0.0226 -0.0228
    1DIPC   GL226068   3.427  26.198   2.438 -0.0772 -0.3975  0.1175
    1DIPC   C1A26069   3.362  25.989   2.871  0.0994  0.1435  0.5199
    1DIPC   D2A26070   3.609  26.100   3.124  0.1782  0.1966 -0.0808
    1DIPC   D3A26071   3.192  26.310   3.197 -0.0034  0.0261 -0.2474
    1DIPC   C4A26072   3.238  26.794   3.368 -0.0478 -0.1033 -0.0038
    1DIPC   C1B26073   3.338  26.521   2.718 -0.0582 -0.1902 -0.4324
    1DIPC   D2B26074   3.573  26.620   3.058  0.4412 -0.4193 -0.1249
    1DIPC   D3B26075   3.610  26.378   3.489  0.2944  0.1598  0.0689
    1DIPC   C4B26076   3.685  26.033   3.691  0.0540 -0.2799 -0.1639
    1DIPC   NC326077  30.044  25.031   2.494 -0.2955  0.1271  0.4632
    1DIPC   PO426078  30.490  25.046   2.643  0.1078  0.3354 -0.2735
    1DIPC   GL126079  30.722  25.137   2.934  0.0899 -0.0771  0.1570
    1DIPC   GL226080  30.929  24.851   3.073 -0.0145  0.1978  0.4092
    1DIPC   C1A26081  30.867  25.317   3.253 -0.0694  0.0967  0.0792
    1DIPC   D2A26082  30.759  25.584   3.545  0.0948 -0.1129 -0.2798
    1DIPC   D3A26083  30.930  25.086   3.671 -0.0033  0.2953  0.3342
    1DIPC   C4A26084  30.579  24.994   3.433  0.0716 -0.0829 -0.0940
    1DIPC   C1B26085  30.764  24.530   3.377  0.2675  0.2626  0.2239
    1DIPC   D2B26086  30.486  24.657   3.859 -0.0134 -0.4540  0.4394
    1DIPC   D3B26087  30.367  24.921   4.111  0.1758  0.0590  0.3380
    1DIPC   C4B26088  30.500  24.892   4.457  0.0930  0.0258  0.0309
    1DIPC   NC326089  13.859  24.258   2.586 -0.3279  0.2500  0.2637
    1DIPC   PO426090  13.546  23.991   2.818 -0.4088 -0.0961  0.1387
    1DIPC   GL126091  13.472  23.701   3.156 -0.0321 -0.1145  0.2558
    1DIPC   GL226092  13.584  23.834   3.486 -0.1915 -0.5413 -0.2893
    1DIPC   C1A26093  13.208  23.560   3.394  0.1247 -0.2243 -0.0792
    1DIPC   D2A26094  13.247  23.119   3.465 -0.0374  0.2564  0.1084
    1DIPC   D3A26095  13.552  23.214   3.664 -0.2871 -0.1637  0.0731
    1DIPC   C4A26096  13.450  23.175   4.131 -0.0575 -0.1195 -0.1218
    1DIPC   C1B26097  13.384  23.739   3.825  0.2249 -0.1713 -0.1085
    1DIPC   D2B26098  13.587  23.634   4.197  0.0165 -0.0275  0.1831
    1DIPC   D3B26099  13.868  23.511   3.985 -0.1742  0.2123  0.0831
    1DIPC   C4B26100  14.054  23.074   4.041  0.0188  0.0177  0.0162
    1DIPC   NC326101  19.879  27.083   3.237 -0.2483  0.1519  0.0569
    1DIPC   PO426102  20.176  27.435   3.020  0.1380  0.0402 -0.2520
    1DIPC   GL126103  20.165  27.416   3.490  0.0654 -0.1722  0.1594
    1DIPC   GL226104  19.872  27.251   3.687  0.0816  0.1389  0.0708
    1DIPC   C1A26105  20.240  27.383   3.964  0.0587 -0.0241 -0.2960
    1DIPC   D2A26106  20.605  27.321   4.305 -0.2841 -0.1435 -0.0708
    1DIPC   D3A26107  20.568  27.358   4.745  0.1311  0.0474 -0.2968
    1DIPC   C4A26108  20.190  27.346   4.823 -0.2060  0.0432 -0.3794
    1DIPC   C1B26109  19.760  27.216   4.146 -0.1445 -0.0870  0.0996
    1DIPC   D2B26110  19.471  27.208   4.499  0.1311  0.0298  0.1635
    1DIPC   D3B26111  19.021  27.064   4.598  0.4870  0.2902 -0.0291
    1DIPC   C4B26112  18.818  26.652   4.662 -0.0527 -0.0982 -0.1773
    1DIPC   NC326113  27.825  26.650   3.076  0.3220  0.5132 -0.0788
    1DIPC   PO426114  27.440  26.481   2.820  0.0717  0.2278  0.0179
    1DIPC   GL126115  27.396  26.376   3.195  0.2013  0.0850  0.1391
    1DIPC   GL226116  27.535  26.110   3.254 -0.0439  0.1942  0.0735
    1DIPC   C1A26117  27.310  26.356   3.639 -0.2155 -0.2187  0.0511
    1DIPC   D2A26118  27.388  26.689   3.928 -0.0672 -0.1342  0.2374
    1DIPC   D3A26119  27.237  26.972   4.230 -0.2983  0.1021 -0.0339
    1DIPC   C4A26120  26.789  26.772   4.323  0.2538 -0.2193 -0.2701
    1DIPC   C1B26121  27.745  25.950   3.662 -0.0301  0.0097  0.1122
    1DIPC   D2B26122  28.017  25.988   3.981 -0.1881  0.2959 -0.1482
    1DIPC   D3B26123  28.139  25.560   4.192  0.1189  0.0950  0.2548
    1DIPC   C4B26124  28.021  25.365   4.579  0.1672  0.0542  0.1419
    1DIPC   NC326125   2.145  11.761   2.250  0.0489 -0.2280 -0.1539
    1DIPC   PO426126   2.458  11.477   2.516 -0.2439 -0.1937  0.1523
    1DIPC   GL126127   2.442  11.447   2.941  0.0218 -0.0832 -0.1943
    1DIPC   GL226128   2.681  11.513   3.113 -0.1527 -0.0683  0.1716
    1DIPC   C1A26129   2.078  11.363   3.053  0.0360  0.2660  0.0196
    1DIPC   D2A26130   1.696  11.371   3.107 -0.0318 -0.0863  0.2757
    1DIPC   D3A26131   1.442  11.689   3.179  0.3108  0.0036  0.0365
    1DIPC   C4A26132   1.103  11.862   3.055 -0.1671  0.1821 -0.2620
    1DIPC   C1B26133   2.840  11.420   3.530 -0.1951 -0.0714  0.0373
    1DIPC   D2B26134   2.729  11.110   3.853  0.0625  0.1249 -0.2216
    1DIPC   D3B26135   2.733  11.526   4.054  0.0538  0.3909  0.1544
    1DIPC   C4B26136   2.520  11.865   3.830  0.4108  0.0030 -0.0781
    1DIPC   NC326137  24.200   5.646   3.183  0.1629  0.0414 -0.0105
    1DIPC   PO426138  23.901   5.971   3.376 -0.0929  0.1748 -0.1648
    1DIPC   GL126139  23.961   6.174   3.771  0.0820 -0.2969 -0.1326
    1DIPC   GL226140  23.942   5.899   3.971  0.0969 -0.1460  0.4010
    1DIPC   C1A26141  23.966   6.506   3.974  0.2137 -0.0670 -0.1770
    1DIPC   D2A26142  23.877   6.587   4.431 -0.0089 -0.1312 -0.2026
    1DIPC   D3A26143  23.501   6.496   4.670 -0.2491 -0.0211  0.1506
    1DIPC   C4A26144  23.451   6.095   4.941 -0.1902 -0.1639 -0.1898
    1DIPC   C1B26145  24.182   5.951   4.346 -0.3192 -0.0707 -0.0597
    1DIPC   D2B26146  24.387   5.852   4.706  0.1171  0.1001  0.2108
    1DIPC   D3B26147  24.232   5.460   4.918  0.2080  0.3592  0.2129
    1DIPC   C4B26148  23.999   5.131   4.995  0.1017  0.1088 -0.0539
    1DIPC   NC326149   0.668   8.769   2.612 -0.0684  0.2178 -0.1020
    1DIPC   PO426150   0.263   8.786   2.688 -0.0115 -0.3881 -0.0523
    1DIPC   GL126151   0.032   8.839   3.118  0.1077 -0.2337 -0.3510
    1DIPC   GL226152   0.002   9.178   3.082 -0.2847  0.0330  0.3767
    1DIPC   C1A26153   0.121   9.029   3.571 -0.1838  0.0924  0.5017
    1DIPC   D2A26154  -0.097   9.099   3.994  0.0160 -0.2704 -0.0741
    1DIPC   D3A26155   0.076   9.237   4.393  0.1121 -0.0681  0.1007
    1DIPC   C4A26156   0.303   8.926   4.565  0.1368  0.0730  0.3109
    1DIPC   C1B26157  -0.165   9.483   3.416 -0.2687  0.0691  0.3494
    1DIPC   D2B26158  -0.433   9.465   3.742  0.0076  0.2814  0.0222
    1DIPC   D3B26159  -0.699   9.736   3.901 -0.0636 -0.1694 -0.0713
    1DIPC   C4B26160  -0.986   9.726   4.294  0.1228 -0.1692 -0.3516
    1DIPC   NC326161  27.831   4.713   2.306  0.1277 -0.2079 -0.0262
    1DIPC   PO426162  27.565   4.700   2.617 -0.0916  0.2263 -0.0827
    1DIPC   GL126163  27.551   4.647   3.045  0.1706 -0.3438  0.1003
    1DIPC   GL226164  27.455   4.426   3.165  0.1149 -0.1072 -0.0157
    1DIPC   C1A26165  27.824   4.612   3.388 -0.0828 -0.1852 -0.1474
    1DIPC   D2A26166  28.198   4.632   3.634 -0.3064  0.2016  0.0713
    1DIPC   D3A26167  28.340   4.332   3.279  0.0765  0.1121 -0.3411
    1DIPC   C4A26168  28.693   4.155   3.128 -0.1246 -0.0000  0.2373
    1DIPC   C1B26169  27.471   4.084   3.459  0.2757 -0.0011 -0.2637
    1DIPC   D2B26170  27.343   3.762   3.753  0.1564 -0.1228  0.3473
    1DIPC   D3B26171  27.460   3.772   4.159  0.0238 -0.0010 -0.2389
    1DIPC   C4B26172  27.640   3.511   4.507  0.1197 -0.1364  0.1463
    1DIPC   NC326173  15.043  24.653   3.047  0.1938 -0.1701 -0.2835
    1DIPC   PO426174  15.525  24.588   3.000  0.0279  0.1824 -0.1402
    1DIPC   GL126175  15.483  24.426   3.398  0.1553  0.1478  0.2448
    1DIPC   GL226176  15.144  24.297   3.292 -0.1901  0.2113 -0.2739
    1DIPC   C1A26177  15.496  24.424   3.867  0.0135 -0.2931 -0.1762
    1DIPC   D2A26178  15.504  24.266   4.295 -0.1688 -0.0890 -0.0850
    1DIPC   D3A26179  15.180  24.464   4.518 -0.4411 -0.1962 -0.0932
    1DIPC   C4A26180  15.157  24.830   4.806 -0.0474  0.2182 -0.4219
    1DIPC   C1B26181  15.148  24.133   3.703 -0.4231  0.0292  0.0521
    1DIPC   D2B26182  15.465  23.884   3.905 -0.1968 -0.1550  0.1053
    1DIPC   D3B26183  15.264  23.836   4.318  0.1253 -0.1240 -0.1788
    1DIPC   C4B26184  14.893  23.676   4.381 -0.1546  0.0484 -0.0370
    1DIPC   NC326185   5.606  10.179   3.006 -0.0582 -0.2785  0.0312
    1DIPC   PO426186   5.606  10.614   3.003  0.0774 -0.2573 -0.2063
    1DIPC   GL126187   5.590  10.490   3.439 -0.0906 -0.1079  0.0197
    1DIPC   GL226188   5.877  10.435   3.668 -0.0989 -0.0630  0.1812
    1DIPC   C1A26189   5.357  10.255   3.693  0.1838 -0.0248  0.2153
    1DIPC   D2A26190   4.865  10.235   3.541 -0.0179  0.1406 -0.1669
    1DIPC   D3A26191   4.681  10.226   3.949  0.0671 -0.1172 -0.2057
    1DIPC   C4A26192   4.974  10.098   4.372 -0.0027  0.1581  0.1771
    1DIPC   C1B26193   5.833  10.701   4.038  0.2978  0.0334 -0.1061
    1DIPC   D2B26194   6.122  10.824   4.377 -0.0199 -0.0091 -0.0873
    1DIPC   D3B26195   6.358  11.165   4.367 -0.0456  0.1984  0.2862
    1DIPC   C4B26196   6.526  11.343   4.692 -0.0909  0.2794  0.0020
    1DIPC   NC326197   1.480  17.596   1.591  0.1425  0.2288  0.1663
    1DIPC   PO426198   1.660  17.246   1.728 -0.1079 -0.0199 -0.0337
    1DIPC   GL126199   1.647  17.464   2.081 -0.0529  0.1015  0.0422
    1DIPC   GL226200   1.773  17.698   2.005  0.2275  0.0487  0.0298
    1DIPC   C1A26201   1.620  17.452   2.468  0.0884  0.0654  0.3117
    1DIPC   D2A26202   1.400  17.601   2.854  0.1916  0.2283  0.2577
    1DIPC   D3A26203   1.307  17.556   3.331  0.0574  0.1812  0.0896
    1DIPC   C4A26204   1.250  17.255   3.579 -0.0042 -0.2017 -0.3207
    1DIPC   C1B26205   1.765  18.056   2.277 -0.3022 -0.0268  0.0875
    1DIPC   D2B26206   1.867  18.276   2.662 -0.0310 -0.1901  0.1097
    1DIPC   D3B26207   2.142  18.610   2.534 -0.1150 -0.1409  0.2337
    1DIPC   C4B26208   2.245  19.089   2.661  0.1480 -0.0141 -0.3850
    1DIPC   NC326209   4.938  26.050   1.847 -0.0868 -0.0025  0.2444
    1DIPC   PO426210   4.555  26.011   1.866  0.2805 -0.3646  0.2485
    1DIPC   GL126211   4.211  25.810   2.126 -0.3698 -0.0692 -0.0662
    1DIPC   GL226212   4.467  25.694   2.429 -0.1654 -0.0749 -0.1013
    1DIPC   C1A26213   3.725  25.774   2.453  0.2549  0.0069 -0.1563
    1DIPC   D2A26214   3.468  25.458   2.834 -0.1550 -0.0547  0.2023
    1DIPC   D3A26215   3.530  25.133   3.181  0.1005 -0.1779  0.0896
    1DIPC   C4A26216   3.604  25.225   3.664  0.0208  0.0330  0.1194
    1DIPC   C1B26217   4.469  25.849   2.916  0.2429  0.0731 -0.0514
    1DIPC   D2B26218   4.496  25.847   3.437  0.0919  0.2012  0.0862
    1DIPC   D3B26219   4.410  25.465   3.321 -0.2443  0.1043 -0.0872
    1DIPC   C4B26220   4.034  25.264   3.358 -0.0840 -0.2047 -0.3810
    1DIPC   NC326221   0.419   0.504   3.516  0.1726  0.0975  0.1121
    1DIPC   PO426222   0.037   0.241   3.470  0.1578 -0.0956  0.3846
    1DIPC   GL126223  -0.017   0.518   3.777  0.0792 -0.0388 -0.1387
    1DIPC   GL226224  -0.238   0.390   3.926 -0.1486 -0.1336 -0.0610
    1DIPC   C1A26225   0.028   0.722   4.207  0.1366  0.3166  0.0824
    1DIPC   D2A26226  -0.129   0.727   4.651  0.2310 -0.1578  0.0043
    1DIPC   D3A26227  -0.283   0.725   5.049 -0.2320 -0.1252  0.0995
    1DIPC   C4A26228  -0.060   0.734   5.372 -0.1263 -0.0946 -0.0556
    1DIPC   C1B26229  -0.408   0.375   4.281 -0.1694 -0.0833  0.1789
    1DIPC   D2B26230  -0.613   0.567   4.561 -0.0087 -0.4060 -0.1100
    1DIPC   D3B26231  -0.940   0.347   4.537 -0.0149 -0.2428  0.2403
    1DIPC   C4B26232  -1.114   0.122   4.912 -0.1513  0.3868  0.2393
    1DIPC   NC326233  15.591  28.695   2.890  0.2971  0.0417 -0.1670
    1DIPC   PO426234  15.290  28.371   2.897  0.1202 -0.3155  0.1201
    1DIPC   GL126235  15.224  28.582   3.263 -0.3376 -0.0503 -0.1877
    1DIPC   GL226236  15.068  28.565   3.597 -0.0108 -0.1296  0.0094
    1DIPC   C1A26237  15.552  28.549   3.537  0.0174 -0.1487 -0.2023
    1DIPC   D2A26238  15.634  28.409   4.000 -0.0397  0.0301  0.1608
    1DIPC   D3A26239  15.407  28.077   3.955  0.3864  0.0596  0.0784
    1DIPC   C4A26240  15.052  28.204   3.992 -0.1863  0.2337  0.2246
    1DIPC   C1B26241  15.161  28.674   4.038 -0.1423  0.0316 -0.0550
    1DIPC   D2B26242  15.350  28.654   4.424 -0.1170  0.0983  0.3145
    1DIPC   D3B26243  15.361  28.227   4.443  0.0458 -0.1288 -0.3119
    1DIPC   C4B26244  15.538  27.904   4.762  0.1621  0.0859  0.0670
    1DIPC   NC326245  12.671   5.173   3.969 -0.0433  0.1260  0.1464
    1DIPC   PO426246  13.048   5.105   3.977 -0.0059 -0.1723 -0.4277
    1DIPC   GL126247  13.003   5.057   4.404 -0.0489  0.2687 -0.0869
    1DIPC   GL226248  12.745   4.925   4.396 -0.2018  0.0705 -0.1334
    1DIPC   C1A26249  13.173   5.317   4.845  0.2973  0.2067 -0.0201
    1DIPC   D2A26250  13.459   5.248   5.190 -0.1813  0.1361  0.0595
    1DIPC   D3A26251  13.600   5.673   5.233  0.0809 -0.4052  0.0004
    1DIPC   C4A26252  13.675   5.933   5.547  0.1834  0.2656 -0.3722
    1DIPC   C1B26253  12.790   4.936   4.918  0.1665  0.2842  0.0521
    1DIPC   D2B26254  12.837   5.052   5.322 -0.2211  0.4082  0.2978
    1DIPC   D3B26255  12.389   4.899   5.550  0.1331  0.3055 -0.1231
    1DIPC   C4B26256  12.041   5.256   5.509 -0.1015 -0.0713 -0.1656
    1DIPC   NC326257  28.956  16.175   1.797 -0.2133  0.0601 -0.0697
    1DIPC   PO426258  29.132  16.433   2.172  0.0061 -0.2151  0.0657
    1DIPC   GL126259  29.283  16.526   2.495 -0.1027  0.0932  0.2203
    1DIPC   GL226260  29.514  16.783   2.536 -0.1137  0.2412  0.2096
    1DIPC   C1A26261  29.331  16.507   2.992 -0.0270  0.0871  0.0781
    1DIPC   D2A26262  29.615  16.462   3.369 -0.4268 -0.0260 -0.0817
    1DIPC   D3A26263  29.383  16.400   3.626 -0.2352  0.0100 -0.0398
    1DIPC   C4A26264  29.386  16.612   4.020  0.3481  0.1749  0.4093
    1DIPC   C1B26265  29.095  16.923   2.741 -0.1741  0.2437 -0.1586
    1DIPC   D2B26266  28.865  17.218   2.835 -0.1260  0.0111 -0.1900
    1DIPC   D3B26267  28.817  17.166   3.285 -0.2199  0.0623  0.2240
    1DIPC   C4B26268  28.573  16.960   3.447 -0.1326 -0.0549  0.1192
    1DIPC   NC326269   2.036  28.238   3.431 -0.1044  0.2050 -0.0339
    1DIPC   PO426270   2.461  28.103   3.315  0.1504 -0.4179 -0.0757
    1DIPC   GL126271   2.645  28.111   3.733  0.3738  0.1316 -0.0343
    1DIPC   GL226272   2.446  28.308   3.910  0.2066  0.0123 -0.2196
    1DIPC   C1A26273   2.878  28.146   4.116  0.0492  0.1646 -0.4460
    1DIPC   D2A26274   2.934  27.998   4.538 -0.0576  0.0017 -0.1713
    1DIPC   D3A26275   3.296  28.118   4.426 -0.2087 -0.1039  0.0368
    1DIPC   C4A26276   3.224  28.450   4.276 -0.2784 -0.0996 -0.2342
    1DIPC   C1B26277   2.385  28.201   4.270 -0.0334  0.2268 -0.0907
    1DIPC   D2B26278   2.454  27.923   4.592 -0.1284 -0.1755  0.1608
    1DIPC   D3B26279   2.680  27.709   4.926 -0.0105 -0.2360  0.1092
    1DIPC   C4B26280   3.229  27.673   4.876 -0.1408  0.0585  0.0676
    1DIPC   NC326281  14.604  24.154   2.490 -0.0066 -0.2063 -0.1048
    1DIPC   PO426282  14.200  23.922   2.677  0.1448 -0.2034 -0.0794
    1DIPC   GL126283  14.499  23.826   3.072 -0.1495 -0.0434 -0.1501
    1DIPC   GL226284  14.377  23.497   3.250 -0.0954  0.3763 -0.1720
    1DIPC   C1A26285  14.877  23.714   3.368  0.0672 -0.0086 -0.0166
    1DIPC   D2A26286  14.957  23.687   3.870 -0.1432 -0.2880 -0.0530
    1DIPC   D3A26287  14.831  23.331   3.716  0.0215  0.4030 -0.0308
    1DIPC   C4A26288  14.695  23.075   4.110  0.3223  0.0947  0.0175
    1DIPC   C1B26289  14.801  23.376   3.025 -0.1264  0.2444  0.0838
    1DIPC   D2B26290  15.256  23.328   3.004  0.1208  0.0216 -0.0818
    1DIPC   D3B26291  15.158  23.012   3.146 -0.0549  0.3873  0.2416
    1DIPC   C4B26292  15.460  22.965   3.431  0.1186  0.1229 -0.1570
    1DIPC   NC326293   6.386  29.019   3.263  0.1390  0.0349  0.0786
    1DIPC   PO426294   6.041  28.882   3.613  0.0855  0.2844 -0.0078
    1DIPC   GL126295   5.997  28.793   4.015 -0.0053 -0.2067 -0.1079
    1DIPC   GL226296   5.792  29.020   4.131  0.0065  0.0261 -0.2069
    1DIPC   C1A26297   6.136  28.612   4.382 -0.0302  0.0314 -0.1595
    1DIPC   D2A26298   6.432  28.266   4.307 -0.1644 -0.3276  0.1169
    1DIPC   D3A26299   6.809  28.152   4.519 -0.1278 -0.1057  0.1561
    1DIPC   C4A26300   7.070  27.853   4.146 -0.0990  0.0385 -0.1504
    1DIPC   C1B26301   5.796  28.870   4.599 -0.3511 -0.1161  0.2296
    1DIPC   D2B26302   5.781  28.672   5.024  0.0506 -0.0596 -0.0955
    1DIPC   D3B26303   5.730  28.932   5.369 -0.2106 -0.0886  0.2902
    1DIPC   C4B26304   5.289  29.069   5.460  0.0098 -0.0687 -0.1944
    1DIPC   NC326305   4.266  29.299   3.765  0.3172 -0.0044  0.1229
    1DIPC   PO426306   3.891  29.587   3.915 -0.0954  0.0729 -0.2317
    1DIPC   GL126307   4.005  29.764   4.295  0.1518  0.2253 -0.2400
    1DIPC   GL226308   4.074  30.022   4.498  0.3674  0.1305 -0.1995
    1DIPC   C1A26309   4.243  29.594   4.751 -0.0026 -0.1103 -0.4756
    1DIPC   D2A26310   4.376  29.261   5.018 -0.3049  0.0482  0.2533
    1DIPC   D3A26311   4.231  29.575   5.350  0.1074  0.0804  0.0304
    1DIPC   C4A26312   3.917  29.867   5.481 -0.0123  0.1908  0.2764
    1DIPC   C1B26313   3.625  30.106   4.587  0.1970  0.1274  0.1180
    1DIPC   D2B26314   3.485  30.239   4.963  0.1218  0.0500 -0.0595
    1DIPC   D3B26315   3.687  30.593   5.195  0.1727 -0.2600 -0.0304
    1DIPC   C4B26316   3.620  30.948   5.082 -0.4538  0.0699  0.0451
    1DIPC   NC326317  24.214  28.067   3.484 -0.1239 -0.3543 -0.1280
    1DIPC   PO426318  24.567  28.380   3.370  0.1546  0.2233  0.2814
    1DIPC   GL126319  24.788  28.110   3.680 -0.1334  0.1228 -0.0071
    1DIPC   GL226320  24.944  27.814   3.647  0.3143 -0.0539  0.0111
    1DIPC   C1A26321  24.847  28.119   4.091  0.0328 -0.1572 -0.0681
    1DIPC   D2A26322  24.933  28.134   4.456 -0.0719  0.1919 -0.0561
    1DIPC   D3A26323  24.586  28.219   4.635  0.0094  0.2964 -0.2474
    1DIPC   C4A26324  24.564  28.655   4.752  0.0091 -0.0059  0.0963
    1DIPC   C1B26325  25.272  28.139   3.727  0.1207  0.2515 -0.0992
    1DIPC   D2B26326  25.257  28.441   3.978  0.4352 -0.0506  0.3440
    1DIPC   D3B26327  25.494  28.464   4.288 -0.0963  0.1908 -0.2483
    1DIPC   C4B26328  25.685  28.216   4.498 -0.0989 -0.0372  0.0033
    1DIPC   NC326329  28.991   9.446   2.220  0.1340 -0.2274  0.0767
    1DIPC   PO426330  29.042   9.023   2.019 -0.0287 -0.5289  0.2577
    1DIPC   GL126331  28.793   8.800   2.438  0.1471  0.0067 -0.3024
    1DIPC   GL226332  28.827   8.519   2.761  0.2559 -0.1766 -0.1385
    1DIPC   C1A26333  28.516   8.925   2.817 -0.1382 -0.1813 -0.0022
    1DIPC   D2A26334  28.277   9.087   3.230 -0.2499  0.0518 -0.0433
    1DIPC   D3A26335  28.527   9.323   3.638  0.0061  0.2510 -0.1714
    1DIPC   C4A26336  28.546   9.015   3.988  0.2154  0.4461  0.0997
    1DIPC   C1B26337  29.024   8.936   2.880 -0.2490 -0.1531 -0.0239
    1DIPC   D2B26338  29.167   9.394   2.792 -0.0904  0.0926 -0.0945
    1DIPC   D3B26339  29.460   9.637   3.000  0.0374 -0.2139 -0.0161
    1DIPC   C4B26340  29.900   9.585   2.914 -0.0674 -0.0411 -0.1619
    1DIPC   NC326341  24.114  17.314   1.761  0.1755  0.1206  0.2179
    1DIPC   PO426342  23.745  17.166   1.946 -0.0009  0.3040 -0.0827
    1DIPC   GL126343  23.904  16.919   2.306  0.0968  0.0166 -0.1458
    1DIPC   GL226344  23.895  16.627   2.081  0.3112  0.0804 -0.1346
    1DIPC   C1A26345  23.929  16.618   2.724  0.0070 -0.4418 -0.0591
    1DIPC   D2A26346  24.125  16.747   3.132 -0.0401  0.0041  0.0753
    1DIPC   D3A26347  24.141  16.320   3.261 -0.5440 -0.2140 -0.0943
    1DIPC   C4A26348  24.061  16.070   3.619  0.1779  0.3771 -0.0276
    1DIPC   C1B26349  24.226  16.459   2.289 -0.0411 -0.3060  0.0129
    1DIPC   D2B26350  24.286  16.183   2.689  0.4488  0.0117  0.2242
    1DIPC   D3B26351  24.504  16.614   2.779 -0.0859  0.2884  0.2173
    1DIPC   C4B26352  24.263  17.023   2.652  0.1893  0.2032 -0.2711
    1DIPC   NC326353  20.239   0.025   2.802 -0.0492 -0.2935  0.0800
    1DIPC   PO426354  19.748   0.106   2.917 -0.1137  0.0497 -0.2744
    1DIPC   GL126355  19.760   0.317   3.399 -0.0003  0.1950 -0.1854
    1DIPC   GL226356  19.646   0.656   3.505 -0.1964  0.0350 -0.2747
    1DIPC   C1A26357  19.721   0.079   3.747 -0.1676 -0.0204  0.2824
    1DIPC   D2A26358  19.873   0.148   4.192  0.0617 -0.0504  0.0685
    1DIPC   D3A26359  19.822   0.361   4.524  0.2561 -0.0679  0.0703
    1DIPC   C4A26360  19.927   0.746   4.671 -0.3971  0.0052  0.1457
    1DIPC   C1B26361  19.807   0.551   3.870  0.0915 -0.0352 -0.0098
    1DIPC   D2B26362  20.211   0.607   3.965  0.4199 -0.0200  0.2522
    1DIPC   D3B26363  20.330   0.386   4.369 -0.0952  0.1429  0.2358
    1DIPC   C4B26364  20.281   0.456   4.827 -0.0400 -0.0941 -0.0187
    1DIPC   NC326365   9.956  26.905   2.805  0.1388  0.1274  0.0414
    1DIPC   PO426366  10.354  26.602   2.929 -0.1443 -0.5134  0.4212
    1DIPC   GL126367  10.419  26.936   3.175  0.0781 -0.1553 -0.0249
    1DIPC   GL226368  10.543  26.652   3.413  0.1698  0.0201 -0.1118
    1DIPC   C1A26369  10.364  27.080   3.583 -0.1224  0.2275  0.2053
    1DIPC   D2A26370   9.997  27.233   3.784  0.2162  0.0295 -0.0137
    1DIPC   D3A26371   9.780  27.154   4.196 -0.1662 -0.0282 -0.1035
    1DIPC   C4A26372   9.670  26.729   4.222  0.1035  0.0324 -0.1158
    1DIPC   C1B26373  10.472  26.382   3.789  0.2063 -0.0352 -0.0758
    1DIPC   D2B26374  10.142  26.279   4.000 -0.0504  0.0584  0.2272
    1DIPC   D3B26375  10.170  26.539   4.323 -0.1963 -0.0137 -0.0662
    1DIPC   C4B26376   9.874  26.526   4.700 -0.0227 -0.0217 -0.1194
    1DIPC   NC326377  24.158   2.383   2.750  0.1667  0.0905  0.0694
    1DIPC   PO426378  24.100   2.769   2.839 -0.1714  0.0753  0.0547
    1DIPC   GL126379  24.356   2.892   3.181  0.2774 -0.1428  0.1383
    1DIPC   GL226380  24.736   2.850   3.205 -0.0979 -0.0887  0.0646
    1DIPC   C1A26381  24.390   2.971   3.650  0.3148 -0.2960 -0.0690
    1DIPC   D2A26382  24.280   3.029   4.086 -0.0140  0.1500 -0.0128
    1DIPC   D3A26383  23.957   2.731   4.294  0.1237 -0.0660 -0.0585
    1DIPC   C4A26384  23.723   2.867   4.695  0.3737  0.1302 -0.1476
    1DIPC   C1B26385  24.815   2.425   3.237 -0.2069 -0.4038 -0.1373
    1DIPC   D2B26386  24.929   2.248   3.621  0.1178 -0.1604  0.2834
    1DIPC   D3B26387  24.739   2.001   3.890 -0.0682  0.6192 -0.1861
    1DIPC   C4B26388  24.879   1.967   4.433  0.1694 -0.0012  0.0214
    1DIPC   NC326389  18.026  10.916   2.282 -0.1046 -0.1917  0.1071
    1DIPC   PO426390  17.571  11.082   2.344  0.0788 -0.1182  0.0734
    1DIPC   GL126391  17.650  10.825   2.703  0.0637  0.0352 -0.2457
    1DIPC   GL226392  17.943  10.970   2.744 -0.0445  0.4107  0.0953
    1DIPC   C1A26393  17.557  10.881   3.128  0.2084  0.2274 -0.2555
    1DIPC   D2A26394  17.437  11.127   3.417  0.1064 -0.0732 -0.0470
    1DIPC   D3A26395  17.088  11.289   3.074  0.4025  0.1737 -0.1618
    1DIPC   C4A26396  16.648  11.076   3.213 -0.0699 -0.2226  0.0428
    1DIPC   C1B26397  18.074  10.877   3.128  0.0049  0.2045 -0.1554
    1DIPC   D2B26398  18.037  10.971   3.638 -0.0287  0.0209 -0.2572
    1DIPC   D3B26399  18.253  11.035   4.054 -0.1813 -0.2394  0.0148
    1DIPC   C4B26400  17.884  10.994   4.357  0.1388  0.0479 -0.1630
    1DIPC   NC326401   2.734  22.110   1.556 -0.0917 -0.0758  0.1549
    1DIPC   PO426402   2.742  21.720   1.671 -0.1305 -0.0906  0.0367
    1DIPC   GL126403   2.416  21.845   2.006  0.1005 -0.1642 -0.1271
    1DIPC   GL226404   2.484  22.119   1.979 -0.0919  0.2177  0.1262
    1DIPC   C1A26405   2.106  21.636   2.337  0.0053  0.0979 -0.3244
    1DIPC   D2A26406   1.862  21.486   2.613 -0.2838 -0.0318  0.2119
    1DIPC   D3A26407   1.665  21.468   3.005  0.2205  0.0067 -0.3289
    1DIPC   C4A26408   1.448  21.191   3.344  0.1798  0.3051  0.2080
    1DIPC   C1B26409   2.418  22.044   2.428 -0.1962  0.2522  0.0075
    1DIPC   D2B26410   2.534  21.848   2.859  0.0260  0.0116 -0.0785
    1DIPC   D3B26411   2.512  21.827   3.184  0.1393  0.0623 -0.3130
    1DIPC   C4B26412   2.594  22.236   3.411 -0.1662 -0.0183 -0.0871
    1DIPC   NC326413   9.319   0.331   3.092  0.0635 -0.1082  0.2998
    1DIPC   PO426414   9.151  -0.124   3.363  0.0197 -0.0070  0.1464
    1DIPC   GL126415   8.818  -0.187   3.745 -0.0034  0.1768  0.0141
    1DIPC   GL226416   8.993  -0.533   3.904  0.0132 -0.3382  0.3057
    1DIPC   C1A26417   8.913  -0.098   4.217  0.1701  0.1609  0.0823
    1DIPC   D2A26418   9.185  -0.021   4.641  0.0299 -0.0085 -0.0475
    1DIPC   D3A26419   9.175  -0.200   4.999 -0.0936 -0.1013 -0.2689
    1DIPC   C4A26420   9.350  -0.589   5.008  0.0104 -0.1657 -0.2275
    1DIPC   C1B26421   8.946  -0.824   4.178  0.0107  0.1134 -0.0501
    1DIPC   D2B26422   8.955  -0.991   4.675 -0.0343  0.0663  0.2198
    1DIPC   D3B26423   9.441  -0.939   4.618 -0.0637 -0.4354  0.1523
    1DIPC   C4B26424   9.939  -0.889   4.741  0.0404  0.3726 -0.1595
    1DIPC   NC326425  27.292  15.217   1.823  0.1972 -0.2134  0.1227
    1DIPC   PO426426  27.344  14.897   1.981 -0.1288 -0.1869 -0.1622
    1DIPC   GL126427  27.379  14.686   2.400  0.1219 -0.2258 -0.0334
    1DIPC   GL226428  27.313  14.231   2.489 -0.0931 -0.0336 -0.1402
    1DIPC   C1A26429  27.479  14.770   2.914 -0.1571  0.1023 -0.0657
    1DIPC   D2A26430  27.463  14.962   3.359 -0.4564 -0.3349  0.0923
    1DIPC   D3A26431  27.371  14.689   3.689  0.1095 -0.2166 -0.0549
    1DIPC   C4A26432  26.934  14.551   3.644 -0.0542  0.1012 -0.1069
    1DIPC   C1B26433  27.183  14.314   2.873  0.0963 -0.3263 -0.2547
    1DIPC   D2B26434  26.944  14.246   3.234 -0.0915  0.2728 -0.2992
    1DIPC   D3B26435  26.768  13.850   3.418 -0.1394 -0.1089  0.0302
    1DIPC   C4B26436  27.060  13.500   3.426 -0.1253 -0.0925 -0.0462
    1DIPC   NC326437  30.056  28.105   3.031 -0.0994 -0.0611 -0.2941
    1DIPC   PO426438  30.406  28.136   3.300  0.1261  0.2481 -0.2936
    1DIPC   GL126439  30.471  27.902   3.548  0.0265 -0.1529  0.3731
    1DIPC   GL226440  30.761  27.746   3.722  0.2427 -0.0212 -0.1655
    1DIPC   C1A26441  30.307  27.560   3.769  0.1349  0.1224  0.0326
    1DIPC   D2A26442  30.437  27.195   4.131  0.2042  0.0696 -0.3592
    1DIPC   D3A26443  30.689  27.259   4.450 -0.0027 -0.0036  0.1530
    1DIPC   C4A26444  30.713  27.213   4.936 -0.0167 -0.0084  0.0689
    1DIPC   C1B26445  30.809  27.300   3.855  0.1374  0.1559  0.0030
    1DIPC   D2B26446  30.553  26.938   3.717  0.0736 -0.0918 -0.0102
    1DIPC   D3B26447  30.361  26.695   4.170  0.1707 -0.0478  0.2439
    1DIPC   C4B26448  29.952  26.686   4.071  0.0303 -0.1931  0.4313
    1DIPC   NC326449  18.005   3.811   3.551  0.1903  0.0263 -0.0542
    1DIPC   PO426450  17.626   3.564   3.610 -0.0799  0.2233  0.1090
    1DIPC   GL126451  17.564   3.483   3.991  0.1720 -0.0146  0.0583
    1DIPC   GL226452  17.293   3.376   4.184 -0.0398  0.2416 -0.3735
    1DIPC   C1A26453  17.748   3.752   4.285  0.1139 -0.0252  0.0915
    1DIPC   D2A26454  18.087   3.806   4.577  0.1092 -0.0518 -0.3207
    1DIPC   D3A26455  18.033   4.189   4.538  0.0140  0.0412  0.4336
    1DIPC   C4A26456  17.775   4.353   4.101  0.0067  0.0199 -0.1881
    1DIPC   C1B26457  17.335   3.691   4.521  0.1260 -0.2585 -0.1921
    1DIPC   D2B26458  17.622   4.040   4.811  0.1930 -0.3886  0.4622
    1DIPC   D3B26459  17.298   4.263   5.136  0.1624  0.1228  0.2118
    1DIPC   C4B26460  17.372   4.388   5.574  0.1255 -0.0110  0.0036
    1DIPC   NC326461  29.962  20.983   1.986  0.1543 -0.1047  0.0446
    1DIPC   PO426462  29.630  20.729   2.198  0.1577  0.0310  0.0462
    1DIPC   GL126463  29.627  20.622   2.668  0.0827 -0.1973  0.1456
    1DIPC   GL226464  29.978  20.450   2.656  0.0468 -0.0152 -0.3046
    1DIPC   C1A26465  29.654  20.560   3.081  0.1259 -0.4947  0.0746
    1DIPC   D2A26466  29.497  20.530   3.574  0.0619 -0.0344 -0.0820
    1DIPC   D3A26467  29.775  20.242   3.578  0.4189 -0.0023  0.0085
    1DIPC   C4A26468  29.741  19.714   3.683 -0.1914  0.1011  0.1553
    1DIPC   C1B26469  29.702  20.124   2.851 -0.0936  0.0859  0.3584
    1DIPC   D2B26470  29.448  20.087   3.235 -0.0551  0.2924  0.0757
    1DIPC   D3B26471  29.066  20.099   2.862  0.0404  0.2821 -0.1593
    1DIPC   C4B26472  28.694  20.203   2.768  0.0814 -0.1773  0.0514
    1DIPC   NC326473  18.126  26.532   2.899 -0.3351 -0.3703 -0.0823
    1DIPC   PO426474  18.075  26.245   3.337 -0.0719 -0.0562  0.0332
    1DIPC   GL126475  17.927  26.171   3.773 -0.2941 -0.4807 -0.2185
    1DIPC   GL226476  18.275  26.465   3.784  0.0565 -0.2552 -0.0580
    1DIPC   C1A26477  18.124  25.956   4.101 -0.1174 -0.0187  0.0975
    1DIPC   D2A26478  18.424  25.794   4.383  0.0818  0.1085  0.3883
    1DIPC   D3A26479  18.011  25.536   4.366  0.2082  0.1126  0.0629
    1DIPC   C4A26480  17.768  25.555   4.775 -0.1080  0.1506 -0.0747
    1DIPC   C1B26481  18.023  26.481   4.180  0.1216 -0.1292 -0.0083
    1DIPC   D2B26482  17.933  26.131   4.519  0.2321  0.3081  0.0503
    1DIPC   D3B26483  17.467  26.045   4.665 -0.1740 -0.0425 -0.1535
    1DIPC   C4B26484  17.184  26.359   4.642 -0.0676 -0.1367 -0.1129
    1DIPC   NC326485   2.129   0.531   3.127 -0.1583 -0.3020  0.0822
    1DIPC   PO426486   2.362   0.778   3.410  0.2153 -0.2158 -0.0182
    1DIPC   GL126487   2.167   0.665   3.804 -0.0057  0.2122 -0.2471
    1DIPC   GL226488   1.989   0.950   3.926 -0.0403 -0.0510  0.0816
    1DIPC   C1A26489   1.708   0.565   3.841  0.0464 -0.2183 -0.2042
    1DIPC   D2A26490   1.242   0.637   4.026  0.1076 -0.1422 -0.1935
    1DIPC   D3A26491   1.082   0.738   4.328 -0.0950  0.0206 -0.1208
    1DIPC   C4A26492   1.256   1.162   4.450 -0.1246  0.2054  0.3029
    1DIPC   C1B26493   2.033   1.088   4.431 -0.1120 -0.0165  0.0355
    1DIPC   D2B26494   1.776   1.172   4.839  0.1491  0.2425 -0.2741
    1DIPC   D3B26495   1.597   0.937   5.173 -0.0941 -0.1849 -0.0465
    1DIPC   C4B26496   1.614   0.519   5.215 -0.0659  0.0851  0.1450
    1DIPC   NC326497  22.645  27.323   2.739 -0.0542  0.5601  0.0134
    1DIPC   PO426498  23.017  27.299   2.986 -0.4561  0.1007  0.0952
    1DIPC   GL126499  23.013  27.154   3.385  0.1359  0.0356 -0.1392
    1DIPC   GL226500  22.767  26.894   3.467 -0.0946 -0.1255  0.1097
    1DIPC   C1A26501  23.155  27.318   3.865 -0.0111 -0.1740  0.1757
    1DIPC   D2A26502  23.416  27.531   4.140 -0.4010  0.1547  0.2475
    1DIPC   D3A26503  23.405  27.395   4.626 -0.0438  0.0935  0.4162
    1DIPC   C4A26504  23.206  27.503   4.874  0.1041 -0.2476 -0.0197
    1DIPC   C1B26505  22.876  26.908   3.947  0.0729 -0.2402  0.0051
    1DIPC   D2B26506  22.712  26.616   4.252 -0.1833 -0.0569 -0.0368
    1DIPC   D3B26507  22.773  26.750   4.612  0.1956  0.0740 -0.3079
    1DIPC   C4B26508  22.713  27.098   4.733  0.2367 -0.1538  0.1225
    1DIPC   NC326509  24.766  13.302   2.030  0.0286 -0.3475  0.1972
    1DIPC   PO426510  25.048  13.054   2.153 -0.2556 -0.0567 -0.1392
    1DIPC   GL126511  25.250  13.225   2.436 -0.1472 -0.2579  0.0986
    1DIPC   GL226512  25.577  13.265   2.361 -0.1867 -0.1725 -0.1428
    1DIPC   C1A26513  25.327  13.232   2.864 -0.1009 -0.3510  0.4585
    1DIPC   D2A26514  25.265  13.573   3.111 -0.3140  0.0323 -0.0921
    1DIPC   D3A26515  25.031  13.249   3.459  0.1500  0.1145  0.1239
    1DIPC   C4A26516  24.725  12.908   3.296 -0.0995 -0.3168 -0.0774
    1DIPC   C1B26517  25.528  13.666   2.578 -0.2634  0.0636 -0.0409
    1DIPC   D2B26518  25.429  14.086   2.375 -0.3812  0.0403  0.0075
    1DIPC   D3B26519  25.185  14.038   2.651 -0.0727 -0.0050 -0.1661
    1DIPC   C4B26520  25.145  14.118   3.054 -0.1384  0.0580  0.0881
    1DIPC   NC326521   5.271  17.273   1.992 -0.0172 -0.0618  0.1203
    1DIPC   PO426522   5.414  17.705   1.810 -0.1379 -0.0719  0.1353
    1DIPC   GL126523   5.047  17.789   2.129  0.0832  0.2293 -0.0567
    1DIPC   GL226524   4.710  18.019   2.164 -0.1291  0.2850  0.0555
    1DIPC   C1A26525   4.975  17.638   2.536  0.3238 -0.1231  0.0405
    1DIPC   D2A26526   5.122  17.790   2.893  0.1268  0.2015 -0.2807
    1DIPC   D3A26527   4.803  17.725   3.093 -0.2591  0.4584 -0.1351
    1DIPC   C4A26528   4.824  17.853   3.525  0.2218  0.0427 -0.0728
    1DIPC   C1B26529   4.345  17.797   2.438 -0.0220 -0.2585 -0.2289
    1DIPC   D2B26530   4.423  17.516   2.783 -0.1271 -0.1986  0.0509
    1DIPC   D3B26531   4.184  17.637   3.071 -0.0360  0.1867  0.1719
    1DIPC   C4B26532   4.418  18.033   3.159  0.3055  0.0178 -0.0754
    1DIPC   NC326533  29.352  25.779   2.336 -0.0178  0.1176  0.0233
    1DIPC   PO426534  29.601  25.391   2.463 -0.1435  0.1856 -0.3339
    1DIPC   GL126535  29.708  25.273   2.921 -0.0119 -0.1874  0.1891
    1DIPC   GL226536  29.868  25.569   3.106  0.1391  0.2188  0.0274
    1DIPC   C1A26537  29.459  25.347   3.307  0.1927 -0.1270  0.0061
    1DIPC   D2A26538  29.589  25.337   3.700 -0.0787 -0.1137 -0.3965
    1DIPC   D3A26539  29.532  25.759   3.928 -0.0606  0.0440  0.0991
    1DIPC   C4A26540  29.221  25.655   4.118 -0.2435  0.1492  0.0833
    1DIPC   C1B26541  29.856  25.097   3.358 -0.2866  0.1380  0.2495
    1DIPC   D2B26542  30.051  24.936   3.681 -0.1903  0.0715 -0.2648
    1DIPC   D3B26543  29.963  25.247   4.133  0.1320  0.1632  0.1272
    1DIPC   C4B26544  29.584  25.267   4.214 -0.0114  0.1184 -0.2092
    1DIPC   NC326545   3.364   7.455   3.024  0.0987  0.1793 -0.0677
    1DIPC   PO426546   2.896   7.362   3.281 -0.2430  0.0180  0.2629
    1DIPC   GL126547   2.865   7.356   3.697 -0.0357 -0.1269 -0.0186
    1DIPC   GL226548   2.854   7.043   3.861 -0.1427 -0.0004 -0.0149
    1DIPC   C1A26549   2.574   7.531   4.050  0.0221 -0.0777  0.2156
    1DIPC   D2A26550   2.538   7.370   4.455 -0.0140  0.1389  0.1896
    1DIPC   D3A26551   2.258   7.089   4.325 -0.2088  0.2691  0.1175
    1DIPC   C4A26552   1.933   7.209   4.099 -0.2607  0.0574 -0.0168
    1DIPC   C1B26553   2.870   7.000   4.381  0.3242  0.1886 -0.2250
    1DIPC   D2B26554   3.122   7.097   4.755  0.0699 -0.0281 -0.2895
    1DIPC   D3B26555   3.360   7.330   5.000  0.0939 -0.0688  0.0337
    1DIPC   C4B26556   3.731   7.397   4.756 -0.1197 -0.0229  0.1494
    1DIPC   NC326557  15.698  23.157   2.683  0.0673 -0.3128  0.0730
    1DIPC   PO426558  15.967  22.852   2.774 -0.1058 -0.0693 -0.0665
    1DIPC   GL126559  15.985  22.955   3.254  0.1788 -0.0983  0.2309
    1DIPC   GL226560  15.981  23.338   3.180  0.1413 -0.2151  0.1158
    1DIPC   C1A26561  15.945  23.065   3.677 -0.1459  0.2686 -0.1803
    1DIPC   D2A26562  16.248  23.165   3.914  0.0443  0.1264 -0.2270
    1DIPC   D3A26563  15.878  23.024   4.171  0.2057 -0.0722  0.0075
    1DIPC   C4A26564  15.672  23.352   4.380 -0.0655 -0.2350  0.0110
    1DIPC   C1B26565  16.336  23.288   3.473 -0.1147 -0.1404 -0.0240
    1DIPC   D2B26566  16.687  23.378   3.877 -0.1344 -0.0797  0.1357
    1DIPC   D3B26567  16.676  23.236   4.333 -0.1284 -0.3569 -0.1335
    1DIPC   C4B26568  16.162  23.009   4.533 -0.0332  0.1910 -0.0827
    1DIPC   NC326569  20.707  26.608   3.433  0.1303  0.1606 -0.3260
    1DIPC   PO426570  21.046  26.399   3.284 -0.2392 -0.1843  0.0110
    1DIPC   GL126571  20.875  26.095   3.581  0.3286  0.0081 -0.1254
    1DIPC   GL226572  20.520  25.895   3.548  0.1701  0.1928 -0.0661
    1DIPC   C1A26573  20.977  25.979   4.016 -0.0500 -0.0326 -0.0161
    1DIPC   D2A26574  21.121  26.124   4.477  0.0607 -0.1081 -0.1828
    1DIPC   D3A26575  21.589  26.253   4.420 -0.1200 -0.0272  0.0377
    1DIPC   C4A26576  21.772  26.501   4.208  0.0590  0.3858 -0.1101
    1DIPC   C1B26577  20.293  25.608   3.775 -0.1075  0.0628 -0.2135
    1DIPC   D2B26578  20.066  25.580   4.205  0.2192  0.1344 -0.0295
    1DIPC   D3B26579  19.759  25.204   4.282 -0.0130 -0.0786  0.2646
    1DIPC   C4B26580  20.056  24.995   4.557  0.0861 -0.1045 -0.1638
    1DIPC   NC326581   3.163   3.076   2.661  0.1011 -0.1892 -0.0109
    1DIPC   PO426582   2.938   3.428   2.804 -0.1024 -0.0898  0.0068
    1DIPC   GL126583   3.000   3.527   3.279 -0.0603 -0.4023  0.0604
    1DIPC   GL226584   2.871   3.353   3.484  0.1789 -0.0027 -0.4807
    1DIPC   C1A26585   3.343   3.621   3.693  0.1841  0.2797 -0.1137
    1DIPC   D2A26586   3.534   3.808   4.050 -0.3261  0.1297 -0.2088
    1DIPC   D3A26587   3.608   4.235   4.179  0.2079 -0.0333 -0.2840
    1DIPC   C4A26588   3.678   4.307   4.575 -0.0385  0.2099 -0.1143
    1DIPC   C1B26589   2.562   3.394   3.819 -0.1204 -0.1412  0.1520
    1DIPC   D2B26590   2.169   3.275   3.967  0.0216  0.0704 -0.0366
    1DIPC   D3B26591   1.996   3.577   4.194  0.1874  0.0248 -0.0023
    1DIPC   C4B26592   1.878   3.388   4.509 -0.0007 -0.0684  0.1469
    1DIPC   NC326593   6.975  14.622   2.871  0.3458  0.0242 -0.2053
    1DIPC   PO426594   7.135  14.972   2.682  0.1096 -0.4816 -0.0508
    1DIPC   GL126595   7.258  15.019   3.130  0.1257  0.0449 -0.2832
    1DIPC   GL226596   7.008  14.810   3.393 -0.1022 -0.3932 -0.0260
    1DIPC   C1A26597   7.596  14.991   3.384 -0.0784  0.0673  0.3228
    1DIPC   D2A26598   7.823  14.953   3.693  0.3567 -0.0971  0.2604
    1DIPC   D3A26599   8.225  15.037   3.884 -0.2007  0.0134  0.0352
    1DIPC   C4A26600   8.198  15.080   4.374  0.1237 -0.0215  0.0754
    1DIPC   C1B26601   7.209  15.068   3.676  0.3133 -0.2718  0.1891
    1DIPC   D2B26602   7.129  15.417   3.461 -0.0117  0.0361  0.1679
    1DIPC   D3B26603   7.568  15.425   3.664  0.0689  0.0073  0.1405
    1DIPC   C4B26604   7.855  15.437   4.024 -0.1953 -0.1818  0.2930
    1DIPC   NC326605   1.484  18.910   1.652  0.0156  0.2719 -0.0895
    1DIPC   PO426606   1.822  19.174   1.865  0.0869 -0.1739 -0.3126
    1DIPC   GL126607   1.852  19.281   2.315 -0.1131 -0.0158 -0.2577
    1DIPC   GL226608   1.473  19.150   2.290 -0.0702 -0.0560 -0.0355
    1DIPC   C1A26609   1.754  19.372   2.792  0.0825  0.1000  0.2930
    1DIPC   D2A26610   1.951  19.802   3.024  0.2494 -0.2513 -0.0286
    1DIPC   D3A26611   1.923  19.513   3.267 -0.1351  0.4449  0.0664
    1DIPC   C4A26612   1.648  19.482   3.597 -0.0768 -0.2828  0.2566
    1DIPC   C1B26613   1.262  19.096   2.685 -0.1380 -0.1968  0.0010
    1DIPC   D2B26614   1.400  19.433   3.090  0.1550  0.1567  0.0368
    1DIPC   D3B26615   1.106  19.112   3.256  0.0562 -0.2393  0.0690
    1DIPC   C4B26616   1.327  18.756   3.589 -0.0355  0.0982  0.1407
    1DIPC   NC326617  15.687   2.196   3.766  0.5057 -0.0591 -0.2399
    1DIPC   PO426618  15.777   2.581   3.978  0.0839  0.2055 -0.0742
    1DIPC   GL126619  16.081   2.349   4.200  0.1850 -0.0261 -0.2290
    1DIPC   GL226620  16.222   2.027   3.982  0.0766  0.1996 -0.1772
    1DIPC   C1A26621  16.186   2.154   4.536 -0.2154  0.0566  0.2531
    1DIPC   D2A26622  16.220   2.202   4.970 -0.0037 -0.1504  0.1043
    1DIPC   D3A26623  16.459   2.617   4.912  0.0915  0.3184  0.1361
    1DIPC   C4A26624  16.406   2.886   5.200  0.1296  0.1623 -0.2031
    1DIPC   C1B26625  16.378   1.742   4.141  0.1194 -0.1498  0.0662
    1DIPC   D2B26626  16.643   1.658   4.508  0.1243 -0.0280  0.0757
    1DIPC   D3B26627  16.343   1.706   4.931 -0.0208 -0.1927  0.2559
    1DIPC   C4B26628  16.288   1.603   5.230  0.3250  0.2222 -0.1066
    1DIPC   NC326629  28.377   1.632   2.504  0.1114  0.1420  0.0137
    1DIPC   PO426630  28.615   1.606   2.791 -0.1373  0.0985 -0.1160
    1DIPC   GL126631  28.613   1.896   2.992 -0.0605 -0.1216  0.1492
    1DIPC   GL226632  28.887   1.813   3.144  0.2204  0.2242  0.1996
    1DIPC   C1A26633  28.727   2.291   3.151  0.1070  0.0320 -0.0734
    1DIPC   D2A26634  28.904   2.612   3.393 -0.0199  0.0604  0.0798
    1DIPC   D3A26635  29.100   2.278   3.554 -0.2319  0.0721 -0.1632
    1DIPC   C4A26636  29.416   2.238   3.719  0.0143  0.0777 -0.4552
    1DIPC   C1B26637  29.032   1.803   3.594 -0.0555  0.1183  0.2357
    1DIPC   D2B26638  29.053   1.843   4.082 -0.0376 -0.0108  0.1350
    1DIPC   D3B26639  28.904   1.583   4.426  0.0183  0.2061 -0.1064
    1DIPC   C4B26640  28.402   1.490   4.598  0.2382 -0.0779 -0.2086
    1DIPC   NC326641   6.951   4.716   3.116 -0.0322  0.0843 -0.1012
    1DIPC   PO426642   6.682   5.104   3.015 -0.0400  0.1829 -0.0258
    1DIPC   GL126643   7.043   5.149   3.296 -0.2497  0.0975 -0.0178
    1DIPC   GL226644   6.937   5.387   3.498  0.0067 -0.2665  0.1060
    1DIPC   C1A26645   7.331   4.933   3.551 -0.4282  0.0394  0.0913
    1DIPC   D2A26646   7.343   4.729   3.933 -0.0987  0.1418 -0.2133
    1DIPC   D3A26647   7.297   5.158   4.099  0.0653  0.1596  0.2874
    1DIPC   C4A26648   7.622   5.355   4.327  0.4242  0.3001  0.3660
    1DIPC   C1B26649   7.021   5.451   3.832 -0.1454 -0.3543  0.2138
    1DIPC   D2B26650   7.257   5.657   4.121  0.1868  0.2186 -0.1297
    1DIPC   D3B26651   7.256   5.492   4.629 -0.0873 -0.0571 -0.0724
    1DIPC   C4B26652   7.343   5.768   4.934 -0.1655  0.1851 -0.1105
    1DIPC   NC326653  23.669   4.508   3.032 -0.1317  0.2203 -0.1892
    1DIPC   PO426654  23.944   4.101   2.901  0.2280 -0.1367 -0.1143
    1DIPC   GL126655  23.953   4.201   3.235 -0.2035 -0.0457  0.1332
    1DIPC   GL226656  24.188   3.978   3.277  0.0280  0.2073  0.0314
    1DIPC   C1A26657  23.888   4.196   3.674  0.1453 -0.0011  0.1956
    1DIPC   D2A26658  24.148   4.131   3.963 -0.2476 -0.2055  0.2008
    1DIPC   D3A26659  23.666   3.948   4.080 -0.2208  0.2171  0.0769
    1DIPC   C4A26660  23.592   3.802   4.483  0.1695 -0.0147 -0.0871
    1DIPC   C1B26661  24.318   3.714   3.642 -0.0297  0.2367  0.0210
    1DIPC   D2B26662  24.598   3.873   3.892  0.1161 -0.2972 -0.5021
    1DIPC   D3B26663  24.972   3.738   4.134 -0.1012 -0.1401  0.3926
    1DIPC   C4B26664  25.481   3.593   3.999  0.0666  0.1337  0.0891
    1DIPC   NC326665  24.808   8.694   2.518 -0.2601 -0.1432  0.0459
    1DIPC   PO426666  25.173   9.128   2.502  0.3380  0.0108 -0.2405
    1DIPC   GL126667  25.149   9.343   2.878  0.3056 -0.4118 -0.2078
    1DIPC   GL226668  25.225   9.646   2.813 -0.0478 -0.2595  0.0004
    1DIPC   C1A26669  25.125   9.217   3.290  0.1272 -0.1590 -0.1391
    1DIPC   D2A26670  25.053   8.741   3.395 -0.2119 -0.0815  0.0251
    1DIPC   D3A26671  25.080   8.647   3.856  0.2297  0.1309  0.2288
    1DIPC   C4A26672  25.011   8.771   4.202 -0.0334 -0.0232 -0.0260
    1DIPC   C1B26673  25.340   9.719   3.223  0.1481  0.1758  0.0316
    1DIPC   D2B26674  25.312   9.800   3.689  0.1654 -0.0129 -0.0780
    1DIPC   D3B26675  24.964   9.978   3.621  0.0702 -0.0689 -0.2484
    1DIPC   C4B26676  24.639   9.837   3.821 -0.0061  0.1670  0.2559
    1DIPC   NC326677  27.993   4.426   2.709  0.1306  0.2625  0.2489
    1DIPC   PO426678  28.101   4.889   2.800  0.0660  0.0446  0.0435
    1DIPC   GL126679  28.324   4.846   3.144  0.3415  0.1731  0.0345
    1DIPC   GL226680  28.201   5.061   3.335  0.1544 -0.2627 -0.5706
    1DIPC   C1A26681  28.664   5.173   3.368  0.2067  0.1287  0.0027
    1DIPC   D2A26682  29.064   5.229   3.268  0.3049  0.1999  0.0012
    1DIPC   D3A26683  29.116   4.873   3.645  0.0732  0.0342  0.1180
    1DIPC   C4A26684  28.994   4.902   4.052 -0.2286  0.2553  0.0020
    1DIPC   C1B26685  27.872   5.087   3.604 -0.0437 -0.1730  0.2137
    1DIPC   D2B26686  28.057   4.868   4.084  0.2013 -0.1641  0.3775
    1DIPC   D3B26687  27.795   4.953   4.507  0.0028 -0.1757  0.0644
    1DIPC   C4B26688  27.740   4.828   4.926  0.0585  0.1572  0.1244
    1DIPC   NC326689   3.853  25.107   1.483  0.0246  0.0110 -0.3640
    1DIPC   PO426690   4.078  25.146   1.786 -0.1427 -0.0498  0.1200
    1DIPC   GL126691   4.229  24.773   2.146 -0.2140  0.2389  0.0385
    1DIPC   GL226692   3.983  24.495   2.195 -0.0199 -0.0343 -0.3460
    1DIPC   C1A26693   4.444  24.326   2.311  0.2049 -0.1534 -0.2726
    1DIPC   D2A26694   4.636  24.067   2.602  0.0645  0.2063 -0.0155
    1DIPC   D3A26695   4.952  24.276   2.706 -0.2714  0.2812  0.0926
    1DIPC   C4A26696   4.984  24.408   2.395 -0.0959 -0.1721  0.1245
    1DIPC   C1B26697   3.965  24.238   2.545 -0.0029  0.0303 -0.2284
    1DIPC   D2B26698   4.154  24.261   2.947 -0.2249 -0.0556 -0.1142
    1DIPC   D3B26699   4.479  23.909   3.108 -0.0782  0.3962 -0.0365
    1DIPC   C4B26700   4.919  23.864   3.246 -0.4516  0.2254 -0.0861
    1DIPC   NC326701   0.847  27.550   2.824  0.0711  0.2511  0.3477
    1DIPC   PO426702   1.236  27.809   2.981  0.2544 -0.1078 -0.1002
    1DIPC   GL126703   1.247  27.720   3.460 -0.2752 -0.1264  0.3669
    1DIPC   GL226704   1.012  27.449   3.524 -0.2950  0.3119  0.1427
    1DIPC   C1A26705   1.304  27.736   3.874  0.0428  0.4653  0.2933
    1DIPC   D2A26706   1.377  27.454   4.194 -0.1536 -0.2722  0.0478
    1DIPC   D3A26707   1.515  27.155   4.555 -0.0623  0.0745  0.1664
    1DIPC   C4A26708   1.597  26.667   4.439  0.0841  0.1246 -0.1608
    1DIPC   C1B26709   1.241  27.178   3.791  0.1037  0.0544 -0.0482
    1DIPC   D2B26710   1.023  27.053   4.177  0.1657 -0.1456  0.1666
    1DIPC   D3B26711   0.636  26.817   4.242 -0.0118  0.2343  0.0098
    1DIPC   C4B26712   0.416  26.782   4.635 -0.0400 -0.4598 -0.3409
    1DIPC   NC326713  25.394   3.876   2.528  0.0891 -0.0979 -0.0697
    1DIPC   PO426714  25.602   4.238   2.591  0.2890 -0.1327 -0.3998
    1DIPC   GL126715  25.549   4.204   3.034  0.2543  0.1585  0.1439
    1DIPC   GL226716  25.436   4.491   3.052 -0.2888 -0.1067 -0.3077
    1DIPC   C1A26717  25.443   4.057   3.365  0.1938  0.3692 -0.0228
    1DIPC   D2A26718  25.474   4.085   3.734 -0.5573 -0.2596  0.1225
    1DIPC   D3A26719  25.399   4.106   4.220  0.2447  0.1268  0.2969
    1DIPC   C4A26720  25.652   4.212   4.493 -0.0363  0.0496  0.3448
    1DIPC   C1B26721  25.753   4.413   3.407  0.3202 -0.0260  0.0861
    1DIPC   D2B26722  25.958   4.215   3.763  0.1220 -0.0875  0.1656
    1DIPC   D3B26723  25.657   4.529   3.851 -0.2465 -0.1291  0.1974
    1DIPC   C4B26724  25.855   4.868   3.655  0.1661 -0.0131 -0.4155
    1DIPC   NC326725  29.369  28.209   3.362 -0.0111  0.0079 -0.3074
    1DIPC   PO426726  29.791  28.152   3.450  0.1338 -0.2143  0.2158
    1DIPC   GL126727  29.954  28.088   3.846 -0.1537  0.0062  0.0437
    1DIPC   GL226728  30.288  28.128   3.950 -0.1825  0.0389  0.0989
    1DIPC   C1A26729  29.884  28.012   4.236 -0.1891  0.1376  0.1395
    1DIPC   D2A26730  29.699  27.833   4.643 -0.1926  0.3986  0.4889
    1DIPC   D3A26731  29.357  27.735   4.536 -0.1104  0.2097  0.1977
    1DIPC   C4A26732  29.417  27.811   4.061  0.0212  0.1570 -0.2924
    1DIPC   C1B26733  30.457  27.812   4.289 -0.0156  0.0252  0.0748
    1DIPC   D2B26734  30.680  27.698   4.703 -0.1431  0.1191 -0.1881
    1DIPC   D3B26735  30.370  27.499   4.760 -0.2962  0.4357 -0.0773
    1DIPC   C4B26736  30.277  27.269   5.158 -0.2078  0.1863  0.0324
    1DIPC   NC326737   2.755   1.001   3.200  0.0599  0.1781  0.2797
    1DIPC   PO426738   2.455   1.418   3.289 -0.1820 -0.1904 -0.0092
    1DIPC   GL126739   2.510   1.225   3.648  0.1805 -0.0942  0.0448
    1DIPC   GL226740   2.426   1.447   3.791 -0.2266  0.0545 -0.0549
    1DIPC   C1A26741   2.475   1.093   4.102 -0.3793 -0.0750 -0.0117
    1DIPC   D2A26742   2.530   1.299   4.496  0.0787  0.1471 -0.0232
    1DIPC   D3A26743   2.748   1.127   4.867  0.1191 -0.0271 -0.0189
    1DIPC   C4A26744   3.201   1.001   5.050  0.2419  0.2738  0.4320
    1DIPC   C1B26745   2.298   1.649   4.181  0.2201 -0.2162 -0.0549
    1DIPC   D2B26746   2.484   1.893   4.592  0.2871 -0.1175  0.2815
    1DIPC   D3B26747   2.657   1.630   4.852 -0.0407 -0.0156 -0.1473
    1DIPC   C4B26748   2.457   1.490   5.046  0.0561  0.0624 -0.0096
    1DIPC   NC326749  20.291  13.965   2.143  0.1101  0.0628  0.2694
    1DIPC   PO426750  20.742  13.937   2.294  0.3868  0.2005  0.0041
    1DIPC   GL126751  20.454  14.087   2.653 -0.2052  0.2062  0.2295
    1DIPC   GL226752  20.496  14.455   2.706 -0.0196 -0.1418  0.2664
    1DIPC   C1A26753  20.626  13.923   2.964 -0.0218  0.1680  0.0951
    1DIPC   D2A26754  21.050  13.836   3.035 -0.1107  0.1719 -0.0171
    1DIPC   D3A26755  21.409  14.021   2.806  0.1340 -0.0362 -0.0636
    1DIPC   C4A26756  21.635  14.127   3.193 -0.0465 -0.0164  0.2549
    1DIPC   C1B26757  20.582  14.613   3.096  0.2182  0.2109 -0.2092
    1DIPC   D2B26758  20.652  14.573   3.485  0.1979  0.0469 -0.0713
    1DIPC   D3B26759  20.452  14.593   3.854 -0.1033  0.2907  0.1199
    1DIPC   C4B26760  20.499  14.302   4.272  0.1537  0.0141 -0.1464
    1DIPC   NC326761   2.323   1.760   2.902 -0.1580  0.1821 -0.0664
    1DIPC   PO426762   2.574   2.134   3.015 -0.4097  0.2226  0.2159
    1DIPC   GL126763   2.538   1.929   3.446  0.0814  0.0167  0.2025
    1DIPC   GL226764   2.750   2.044   3.735  0.1369 -0.1889  0.1141
    1DIPC   C1A26765   2.253   1.916   3.743  0.0855 -0.0026 -0.2316
    1DIPC   D2A26766   2.268   2.123   4.084 -0.0762  0.0226  0.0190
    1DIPC   D3A26767   2.278   2.571   4.130  0.0427  0.0703 -0.3049
    1DIPC   C4A26768   2.222   2.803   3.781  0.0326 -0.0862 -0.2801
    1DIPC   C1B26769   2.754   1.953   4.094 -0.3037 -0.1859  0.1168
    1DIPC   D2B26770   2.755   1.584   4.098  0.0092 -0.2637  0.0234
    1DIPC   D3B26771   2.971   1.683   4.414  0.0629 -0.0255  0.0702
    1DIPC   C4B26772   2.925   2.131   4.561 -0.2195 -0.0445  0.2027
    1DIPC   NC326773  23.746  21.033   2.053  0.0061  0.1651  0.0826
    1DIPC   PO426774  23.830  21.320   2.409 -0.4645  0.0611 -0.0905
    1DIPC   GL126775  23.630  21.348   2.748 -0.0127 -0.0332  0.4343
    1DIPC   GL226776  23.616  21.691   2.872 -0.2938 -0.0274 -0.0751
    1DIPC   C1A26777  23.561  20.940   3.115  0.0573  0.0572 -0.4314
    1DIPC   D2A26778  23.741  20.659   3.332 -0.1203 -0.2761 -0.0769
    1DIPC   D3A26779  23.731  21.144   3.625  0.1090  0.3439  0.1496
    1DIPC   C4A26780  23.961  21.332   3.954  0.0025  0.3516 -0.3184
    1DIPC   C1B26781  23.940  21.863   3.228 -0.0184  0.0995  0.0605
    1DIPC   D2B26782  24.247  22.030   3.526 -0.2202  0.0668  0.2506
    1DIPC   D3B26783  24.465  22.471   3.545  0.2472  0.3511  0.2101
    1DIPC   C4B26784  24.764  22.784   3.702 -0.3070 -0.0822 -0.1909
    1DIPC   NC326785  19.117   3.384   3.159  0.2580 -0.1900 -0.2452
    1DIPC   PO426786  18.900   3.829   3.285  0.0162 -0.1588 -0.1746
    1DIPC   GL126787  18.961   3.690   3.700 -0.0538  0.1351 -0.1585
    1DIPC   GL226788  18.798   3.362   3.855  0.1822  0.1731 -0.0835
    1DIPC   C1A26789  18.742   3.809   4.014 -0.2471 -0.0827 -0.1702
    1DIPC   D2A26790  18.314   3.986   4.083  0.1558  0.4326 -0.0379
    1DIPC   D3A26791  18.252   4.460   4.167 -0.1805 -0.1094  0.1027
    1DIPC   C4A26792  18.473   4.606   4.528 -0.0801 -0.0555 -0.1977
    1DIPC   C1B26793  18.948   3.383   4.250  0.0275 -0.0346 -0.0638
    1DIPC   D2B26794  19.148   3.101   4.521  0.1072  0.0515  0.0725
    1DIPC   D3B26795  19.460   3.165   4.847  0.1891 -0.1909  0.0515
    1DIPC   C4B26796  19.329   3.403   5.204  0.0695  0.1532 -0.2309
    1DIPC   NC326797   5.459   2.827   2.857 -0.1917  0.3705  0.0748
    1DIPC   PO426798   5.695   3.164   3.118  0.0607 -0.3005  0.3658
    1DIPC   GL126799   5.700   3.403   3.436  0.2469 -0.0610 -0.3747
    1DIPC   GL226800   6.045   3.377   3.479 -0.0043  0.1705  0.0080
    1DIPC   C1A26801   5.613   3.360   3.975 -0.0152  0.0288 -0.0155
    1DIPC   D2A26802   5.772   3.292   4.317 -0.0914  0.0651  0.0945
    1DIPC   D3A26803   5.548   2.875   4.313  0.1204  0.1190 -0.0907
    1DIPC   C4A26804   5.915   2.629   4.244  0.1288  0.2685  0.1541
    1DIPC   C1B26805   6.113   3.377   3.904  0.0333  0.1003 -0.1675
    1DIPC   D2B26806   6.270   3.455   4.229  0.2273 -0.1002 -0.0395
    1DIPC   D3B26807   6.216   3.036   4.449  0.0182  0.3575 -0.4753
    1DIPC   C4B26808   6.504   2.655   4.409 -0.4721  0.0295 -0.1538
    1DIPC   NC326809  26.556  16.982   2.123  0.2783 -0.0351  0.2729
    1DIPC   PO426810  26.278  17.158   1.898  0.0453 -0.2612  0.2663
    1DIPC   GL126811  26.079  17.136   2.318  0.1786 -0.2089  0.3906
    1DIPC   GL226812  26.014  17.485   2.405  0.1950 -0.1859 -0.0756
    1DIPC   C1A26813  26.281  17.045   2.669  0.0449 -0.2991 -0.1500
    1DIPC   D2A26814  26.370  16.645   2.902 -0.3306 -0.1068  0.1010
    1DIPC   D3A26815  25.930  16.411   3.069 -0.0221 -0.0489 -0.2014
    1DIPC   C4A26816  26.001  16.428   3.473 -0.1270 -0.0212 -0.1526
    1DIPC   C1B26817  25.993  17.717   2.875  0.1928 -0.1768  0.1988
    1DIPC   D2B26818  25.980  17.853   3.321 -0.1717 -0.0149  0.3287
    1DIPC   D3B26819  26.145  17.583   3.590  0.2406  0.2167 -0.1783
    1DIPC   C4B26820  26.153  17.163   3.628 -0.0816 -0.0211  0.0037
    1DIPC   NC326821  28.840   7.533   2.706 -0.2576 -0.2086 -0.0083
    1DIPC   PO426822  29.032   7.877   2.591 -0.1025 -0.2660  0.2386
    1DIPC   GL126823  28.801   7.988   2.934 -0.2419 -0.1008 -0.2188
    1DIPC   GL226824  28.634   7.785   3.153 -0.0973  0.1836 -0.1982
    1DIPC   C1A26825  28.756   8.240   3.319 -0.2737  0.1879  0.1548
    1DIPC   D2A26826  28.978   8.475   3.615 -0.0569 -0.2829 -0.3046
    1DIPC   D3A26827  28.744   8.535   3.994  0.2038  0.1621 -0.2070
    1DIPC   C4A26828  28.532   8.270   4.286 -0.0739  0.2019 -0.1313
    1DIPC   C1B26829  28.347   7.983   3.389 -0.1059 -0.1911 -0.0451
    1DIPC   D2B26830  28.296   8.186   3.750 -0.0219  0.1319 -0.0952
    1DIPC   D3B26831  28.110   7.955   4.164  0.1572  0.0001 -0.2293
    1DIPC   C4B26832  27.666   7.985   4.234 -0.2483  0.1866 -0.2020
    1DIPC   NC326833  24.547  10.722   2.265 -0.2100 -0.1105 -0.0350
    1DIPC   PO426834  24.329  10.377   2.275  0.3258  0.0246 -0.0702
    1DIPC   GL126835  24.254  10.535   2.682 -0.1198 -0.1271 -0.2705
    1DIPC   GL226836  24.210  10.912   2.743 -0.4405 -0.0475 -0.1299
    1DIPC   C1A26837  24.250  10.613   3.181  0.0091 -0.2479 -0.1638
    1DIPC   D2A26838  23.896  10.786   3.356 -0.0114 -0.0068 -0.2007
    1DIPC   D3A26839  23.681  11.080   3.430  0.0325 -0.0026 -0.0726
    1DIPC   C4A26840  23.777  11.446   3.331 -0.2913  0.5229 -0.0165
    1DIPC   C1B26841  24.173  11.156   3.146 -0.2184 -0.1090 -0.2107
    1DIPC   D2B26842  24.153  11.625   3.026 -0.1625 -0.2840 -0.0849
    1DIPC   D3B26843  24.368  12.017   3.243 -0.0519 -0.0681 -0.1252
    1DIPC   C4B26844  24.508  11.899   3.643 -0.0514 -0.0260  0.1750
    1DIPC   NC326845  14.844   2.064   3.524  0.1013 -0.0562  0.4023
    1DIPC   PO426846  14.724   1.571   3.673  0.0093 -0.0881 -0.1087
    1DIPC   GL126847  15.196   1.663   3.928 -0.2351  0.0996 -0.0115
    1DIPC   GL226848  15.243   2.036   3.835  0.0995 -0.2955 -0.0519
    1DIPC   C1A26849  15.424   1.647   4.333  0.4344  0.4906  0.2783
    1DIPC   D2A26850  15.488   1.921   4.701  0.2218  0.1160 -0.2366
    1DIPC   D3A26851  15.188   1.951   4.981 -0.1146 -0.1053 -0.3987
    1DIPC   C4A26852  15.015   1.805   5.350  0.1704 -0.1510 -0.2379
    1DIPC   C1B26853  15.292   2.147   4.296  0.0137 -0.1575  0.1431
    1DIPC   D2B26854  15.631   2.357   4.483 -0.3912  0.1235 -0.3592
    1DIPC   D3B26855  15.500   2.355   4.945 -0.1237  0.2347  0.0795
    1DIPC   C4B26856  15.772   2.312   5.305 -0.0406  0.1855  0.1166
    1DIPC   NC326857  13.648  22.570   2.367 -0.3524 -0.0302  0.2418
    1DIPC   PO426858  13.369  22.763   2.502 -0.2126  0.0709 -0.0355
    1DIPC   GL126859  13.346  22.737   2.944 -0.0368  0.0365 -0.0628
    1DIPC   GL226860  13.533  22.901   3.092 -0.1465  0.1917  0.0523
    1DIPC   C1A26861  12.984  22.839   3.206  0.0237 -0.1524  0.0498
    1DIPC   D2A26862  12.651  22.532   3.272  0.0076  0.2347 -0.0553
    1DIPC   D3A26863  12.637  22.281   3.622 -0.2774  0.0918 -0.2272
    1DIPC   C4A26864  12.345  22.059   3.708 -0.1100 -0.0225  0.0517
    1DIPC   C1B26865  13.738  23.211   3.155 -0.1314 -0.1490  0.2954
    1DIPC   D2B26866  13.929  23.499   3.460 -0.0998  0.1783 -0.0378
    1DIPC   D3B26867  14.154  23.069   3.430 -0.1259  0.0756 -0.3935
    1DIPC   C4B26868  14.032  22.705   3.316  0.1701  0.1490  0.1740
    1DIPC   NC326869  24.739  18.435   2.162  0.2385 -0.1173  0.1081
    1DIPC   PO426870  25.039  18.707   2.107 -0.2466  0.0031  0.3020
    1DIPC   GL126871  25.257  18.810   2.347  0.1183 -0.1835  0.0426
    1DIPC   GL226872  25.511  18.424   2.346  0.0518  0.1629 -0.0984
    1DIPC   C1A26873  25.241  18.974   2.790  0.0478 -0.0339 -0.1864
    1DIPC   D2A26874  25.235  18.913   3.248  0.1162 -0.1319  0.0218
    1DIPC   D3A26875  25.483  19.099   3.588  0.2415  0.2863 -0.1228
    1DIPC   C4A26876  25.495  19.538   3.658 -0.2279 -0.2500 -0.1073
    1DIPC   C1B26877  25.710  18.698   2.586 -0.0936  0.0947 -0.1779
    1DIPC   D2B26878  25.895  19.005   2.726 -0.3720  0.0005 -0.1558
    1DIPC   D3B26879  25.824  18.998   3.122 -0.3051 -0.2575 -0.2225
    1DIPC   C4B26880  26.139  18.849   3.340 -0.1098 -0.3020 -0.1906
    1DIPC   NC326881   6.242  26.809   2.193  0.0992 -0.1184  0.1829
    1DIPC   PO426882   5.866  26.465   2.425 -0.0785 -0.2307 -0.0069
    1DIPC   GL126883   5.961  26.237   2.735 -0.0263  0.1811 -0.0559
    1DIPC   GL226884   5.681  26.496   2.877  0.2482 -0.2827 -0.1145
    1DIPC   C1A26885   6.143  26.011   3.075  0.0444 -0.2054 -0.0104
    1DIPC   D2A26886   6.505  25.727   3.238 -0.1264  0.1566  0.0767
    1DIPC   D3A26887   6.347  25.743   3.554  0.3061  0.3321 -0.3837
    1DIPC   C4A26888   6.092  25.365   3.785 -0.1774  0.0054 -0.0991
    1DIPC   C1B26889   5.310  26.392   3.080 -0.2615 -0.2043  0.1306
    1DIPC   D2B26890   4.938  26.667   3.234 -0.2919  0.1111  0.0298
    1DIPC   D3B26891   5.041  26.383   3.564 -0.2081  0.0252 -0.0074
    1DIPC   C4B26892   4.943  25.945   3.664 -0.0486 -0.3171  0.0305
    1DIPC   NC326893  15.154   9.423   2.764 -0.2812 -0.0769 -0.0399
    1DIPC   PO426894  14.997   9.180   3.031 -0.2797  0.0226  0.0672
    1DIPC   GL126895  15.321   9.263   3.335 -0.0094  0.1596  0.0338
    1DIPC   GL226896  15.365   9.586   3.243  0.1134  0.0080  0.2106
    1DIPC   C1A26897  15.747   9.037   3.370 -0.0458  0.2093 -0.1724
    1DIPC   D2A26898  16.031   8.752   3.608 -0.2958 -0.2455  0.0476
    1DIPC   D3A26899  15.677   8.514   3.693 -0.1083 -0.1496 -0.0443
    1DIPC   C4A26900  15.581   8.615   4.138  0.1226  0.0203  0.1650
    1DIPC   C1B26901  15.673   9.516   3.578 -0.0872  0.0305  0.2158
    1DIPC   D2B26902  15.989   9.526   3.967 -0.3025 -0.0529  0.0352
    1DIPC   D3B26903  15.979   9.562   4.461  0.0920 -0.1445 -0.2429
    1DIPC   C4B26904  16.355   9.373   4.624 -0.2973 -0.1223  0.0337
    1DIPC   NC326905  11.402  28.345   3.302 -0.1286  0.1328 -0.3724
    1DIPC   PO426906  11.926  28.305   3.355 -0.2812  0.0948 -0.1084
    1DIPC   GL126907  11.804  28.115   3.733  0.0797  0.2607 -0.2872
    1DIPC   GL226908  11.370  28.106   3.870 -0.3082 -0.0419 -0.3202
    1DIPC   C1A26909  11.835  28.096   4.171 -0.1364 -0.2078  0.1458
    1DIPC   D2A26910  11.777  27.903   4.522  0.0225  0.1799 -0.2862
    1DIPC   D3A26911  11.468  27.947   4.702  0.2521 -0.2539 -0.1347
    1DIPC   C4A26912  11.140  28.049   4.542  0.1099  0.1828  0.0953
    1DIPC   C1B26913  11.031  28.324   4.124 -0.0521 -0.3147 -0.3399
    1DIPC   D2B26914  10.686  28.215   4.427  0.0375 -0.2476  0.1801
    1DIPC   D3B26915  10.597  28.006   4.145 -0.1675  0.1440 -0.1033
    1DIPC   C4B26916  10.917  27.862   4.018  0.1300  0.1716  0.0043
    1DIPC   NC326917  28.210   1.077   2.000  0.1201 -0.0499  0.0049
    1DIPC   PO426918  28.007   1.128   2.421  0.0423 -0.3500 -0.2296
    1DIPC   GL126919  27.685   1.203   2.783 -0.1461 -0.1057  0.0153
    1DIPC   GL226920  27.893   1.095   2.959  0.0226 -0.0033  0.1352
    1DIPC   C1A26921  27.481   1.328   3.189 -0.0016 -0.2792 -0.0444
    1DIPC   D2A26922  27.244   1.005   3.454  0.2455  0.1545 -0.2215
    1DIPC   D3A26923  27.089   1.075   3.952  0.0323 -0.1479 -0.3205
    1DIPC   C4A26924  27.436   1.215   4.235  0.2442  0.0412 -0.0828
    1DIPC   C1B26925  27.778   0.950   3.373  0.2206  0.3296 -0.4925
    1DIPC   D2B26926  27.527   0.640   3.632 -0.0321  0.0248  0.0793
    1DIPC   D3B26927  27.676   0.468   4.020 -0.1190 -0.2308  0.0513
    1DIPC   C4B26928  27.326   0.455   4.325 -0.1265 -0.1441 -0.0463
    1DIPC   NC326929   2.475  25.814   2.046 -0.2220  0.3355  0.2650
    1DIPC   PO426930   1.950  25.847   2.145  0.3680 -0.0247  0.1502
    1DIPC   GL126931   2.146  25.934   2.550  0.1906  0.1091  0.2572
    1DIPC   GL226932   2.206  26.183   2.857 -0.0984  0.0151 -0.1345
    1DIPC   C1A26933   2.456  25.694   2.880 -0.1396  0.1810  0.5009
    1DIPC   D2A26934   2.981  25.657   2.823  0.3011  0.3000  0.1588
    1DIPC   D3A26935   3.084  25.379   2.491  0.2195 -0.0792  0.2773
    1DIPC   C4A26936   3.483  25.320   2.251 -0.0837  0.2731  0.1613
    1DIPC   C1B26937   1.895  26.001   3.069  0.2560 -0.4244  0.0313
    1DIPC   D2B26938   1.801  25.732   3.459 -0.0404 -0.1756  0.0919
    1DIPC   D3B26939   2.235  25.649   3.311  0.2573  0.2710 -0.0664
    1DIPC   C4B26940   2.352  26.063   3.312 -0.2164  0.0852  0.0801
    1DIPC   NC326941   5.220   0.028   3.661 -0.1973 -0.3275  0.2926
    1DIPC   PO426942   5.060   0.123   4.080  0.1370 -0.1034 -0.3607
    1DIPC   GL126943   5.162   0.001   4.437  0.3061 -0.3345 -0.1691
    1DIPC   GL226944   4.880  -0.053   4.596  0.2111  0.1852 -0.1831
    1DIPC   C1A26945   5.102  -0.432   4.725 -0.2165  0.0357  0.2294
    1DIPC   D2A26946   5.178  -0.788   5.032 -0.0687  0.5441  0.1195
    1DIPC   D3A26947   4.819  -1.045   5.099 -0.1039  0.0084  0.1333
    1DIPC   C4A26948   4.785  -1.421   5.349  0.3618  0.0699 -0.3620
    1DIPC   C1B26949   5.012  -0.021   5.030  0.0170  0.2634  0.1999
    1DIPC   D2B26950   5.260  -0.222   5.263 -0.2636 -0.2967  0.0094
    1DIPC   D3B26951   5.272   0.241   5.349 -0.1973 -0.1650 -0.1011
    1DIPC   C4B26952   5.306   0.491   5.668 -0.1603  0.0245  0.0997
    1DIPC   NC326953   2.702   6.949   2.949 -0.0303 -0.0949 -0.1602
    1DIPC   PO426954   2.304   6.778   3.023 -0.2172  0.0730  0.0092
    1DIPC   GL126955   2.117   6.789   3.515 -0.0269  0.0193  0.0026
    1DIPC   GL226956   2.295   6.960   3.798 -0.0396  0.2017 -0.1280
    1DIPC   C1A26957   1.773   7.066   3.671 -0.0565  0.0176 -0.2069
    1DIPC   D2A26958   1.391   7.313   3.592 -0.0925  0.1614  0.1913
    1DIPC   D3A26959   1.425   7.290   4.067  0.0545 -0.1812 -0.2623
    1DIPC   C4A26960   1.311   7.552   4.302 -0.1610  0.1247 -0.1561
    1DIPC   C1B26961   2.478   6.677   4.026  0.3154 -0.0177  0.0064
    1DIPC   D2B26962   2.407   6.256   4.252 -0.0301 -0.0651 -0.0512
    1DIPC   D3B26963   2.037   6.122   4.566 -0.4266  0.1631  0.0117
    1DIPC   C4B26964   1.896   6.253   4.992 -0.0223 -0.1593  0.0122
    1DIPC   NC326965  22.167  13.561   2.011 -0.2719  0.0573  0.4657
    1DIPC   PO426966  21.963  13.890   2.375 -0.3087 -0.1709  0.1260
    1DIPC   GL126967  21.931  13.931   2.779 -0.3182  0.2702 -0.0393
    1DIPC   GL226968  22.116  13.604   2.842 -0.4911  0.3652  0.1237
    1DIPC   C1A26969  22.110  13.888   3.268  0.1405 -0.0681  0.0329
    1DIPC   D2A26970  22.476  13.782   3.526 -0.0100 -0.2035 -0.0482
    1DIPC   D3A26971  22.467  13.608   3.819 -0.2429 -0.0940 -0.2354
    1DIPC   C4A26972  22.333  13.343   4.063  0.2186 -0.1510  0.0490
    1DIPC   C1B26973  22.489  13.849   2.932 -0.2995  0.2293 -0.1079
    1DIPC   D2B26974  22.868  13.812   3.178 -0.1157  0.0378  0.2733
    1DIPC   D3B26975  22.956  13.731   3.630 -0.0002 -0.0440 -0.2709
    1DIPC   C4B26976  22.939  14.045   3.845 -0.0625 -0.0830  0.0496
    1DIPC   NC326977  29.527  18.836   1.370 -0.1185  0.1870 -0.0033
    1DIPC   PO426978  29.642  18.363   1.680  0.1126 -0.0436 -0.1819
    1DIPC   GL126979  29.501  18.184   2.117 -0.1580 -0.1281  0.4054
    1DIPC   GL226980  29.542  18.472   2.251  0.1524 -0.2200 -0.0187
    1DIPC   C1A26981  29.285  18.087   2.527  0.1072  0.0648  0.2933
    1DIPC   D2A26982  28.881  18.122   2.634  0.2534 -0.1306  0.4021
    1DIPC   D3A26983  28.845  18.376   3.013 -0.2497 -0.2282  0.2224
    1DIPC   C4A26984  29.060  18.659   3.141  0.0079  0.0443  0.0369
    1DIPC   C1B26985  29.533  18.865   2.465  0.2023  0.1684 -0.0505
    1DIPC   D2B26986  29.575  18.936   2.895  0.0523 -0.0560 -0.1301
    1DIPC   D3B26987  29.789  18.727   3.160  0.0049  0.0172  0.1377
    1DIPC   C4B26988  29.413  18.552   3.436 -0.3541  0.3142 -0.1660
    1DIPC   NC326989  26.308   5.417   2.858  0.0874 -0.4348 -0.2536
    1DIPC   PO426990  26.553   5.762   2.972 -0.0553 -0.1552 -0.1750
    1DIPC   GL126991  26.591   5.552   3.263 -0.2117 -0.0791 -0.0416
    1DIPC   GL226992  26.351   5.659   3.454 -0.1661  0.0465 -0.1125
    1DIPC   C1A26993  26.760   5.284   3.620 -0.0684 -0.4973  0.2895
    1DIPC   D2A26994  27.065   5.064   3.943 -0.0503  0.3110 -0.1137
    1DIPC   D3A26995  27.063   4.758   4.309 -0.2193 -0.3138 -0.1152
    1DIPC   C4A26996  27.237   4.856   4.667 -0.0024  0.2069 -0.0920
    1DIPC   C1B26997  26.504   5.872   3.746 -0.0633  0.0241 -0.1360
    1DIPC   D2B26998  26.267   6.081   4.066  0.1142 -0.2331 -0.0447
    1DIPC   D3B26999  26.246   5.951   4.447  0.1734  0.1587 -0.1053
    1DIPC   C4B27000  25.930   5.930   4.632 -0.1004 -0.1771 -0.0959
    1DIPC   NC327001  26.301  24.621   2.693 -0.1184 -0.2034  0.2568
    1DIPC   PO427002  25.962  24.919   2.732 -0.2124 -0.0359  0.4119
    1DIPC   GL127003  26.091  24.826   3.125  0.0732 -0.0938 -0.2740
    1DIPC   GL227004  26.206  24.532   3.254  0.0413  0.3174  0.0853
    1DIPC   C1A27005  26.310  24.877   3.533 -0.0980  0.2090 -0.2522
    1DIPC   D2A27006  26.511  24.741   3.866  0.3958 -0.0610  0.2492
    1DIPC   D3A27007  26.721  24.928   4.163 -0.1435  0.1515 -0.0687
    1DIPC   C4A27008  26.760  25.287   4.195  0.3709  0.0408 -0.0956
    1DIPC   C1B27009  26.717  24.426   3.482 -0.1548 -0.1527 -0.1553
    1DIPC   D2B27010  26.922  24.406   3.888 -0.0265 -0.0823  0.2635
    1DIPC   D3B27011  26.964  24.852   3.662  0.0308  0.1519  0.1941
    1DIPC   C4B27012  26.704  25.172   3.718  0.2178  0.3640 -0.2137
    1DIPC   NC327013  12.773   6.878   3.632  0.2282  0.4723 -0.1620
    1DIPC   PO427014  13.045   6.537   3.829  0.0487 -0.0294 -0.1258
    1DIPC   GL127015  13.089   6.506   4.211  0.0775 -0.0202  0.1244
    1DIPC   GL227016  12.862   6.637   4.374 -0.1161  0.2349 -0.2007
    1DIPC   C1A27017  13.356   6.311   4.495  0.2516 -0.1789  0.0911
    1DIPC   D2A27018  13.624   6.088   4.640  0.0006  0.1879  0.1903
    1DIPC   D3A27019  13.814   6.076   4.888  0.1877  0.1455 -0.0422
    1DIPC   C4A27020  13.948   6.331   5.159 -0.2167  0.1872  0.1724
    1DIPC   C1B27021  12.792   6.151   4.443 -0.0827  0.0139  0.0507
    1DIPC   D2B27022  12.543   5.894   4.717  0.0709 -0.0723  0.0420
    1DIPC   D3B27023  12.723   5.505   5.018  0.2814  0.2377 -0.1415
    1DIPC   C4B27024  13.056   5.596   5.264  0.1869  0.1232 -0.1874
    1DIPC   NC327025  16.951   5.920   3.829  0.1096 -0.0286  0.0539
    1DIPC   PO427026  16.968   6.392   3.836 -0.0681 -0.1157  0.0845
    1DIPC   GL127027  17.306   6.392   4.083 -0.1660 -0.0014 -0.0863
    1DIPC   GL227028  17.128   6.154   4.234  0.1741  0.1385  0.2412
    1DIPC   C1A27029  17.812   6.456   4.139 -0.0866  0.2691 -0.2053
    1DIPC   D2A27030  18.052   6.525   4.616  0.2117  0.1783 -0.2245
    1DIPC   D3A27031  17.912   6.861   4.913 -0.0492  0.0072  0.0604
    1DIPC   C4A27032  17.648   7.109   4.784 -0.2163 -0.2220 -0.1670
    1DIPC   C1B27033  17.086   6.200   4.743  0.2474  0.0483  0.1151
    1DIPC   D2B27034  16.969   5.873   5.056  0.1384  0.1193  0.1869
    1DIPC   D3B27035  17.123   5.771   5.419 -0.2250 -0.3163 -0.1796
    1DIPC   C4B27036  17.474   5.862   5.539 -0.5837 -0.0704 -0.3230
    1DIPC   NC327037   4.817   5.347   3.292 -0.1477 -0.1297 -0.3510
    1DIPC   PO427038   4.784   5.793   3.444 -0.1955 -0.0260 -0.0765
    1DIPC   GL127039   4.411   5.887   3.720 -0.1127 -0.4415 -0.0470
    1DIPC   GL227040   4.254   5.592   3.867 -0.2096  0.2005 -0.0977
    1DIPC   C1A27041   4.391   6.057   4.132  0.1730  0.2166  0.1000
    1DIPC   D2A27042   4.427   5.983   4.626 -0.1080  0.0890  0.2348
    1DIPC   D3A27043   4.387   6.380   4.666 -0.0875 -0.2468  0.0866
    1DIPC   C4A27044   4.301   6.733   4.369  0.0697 -0.0040  0.1690
    1DIPC   C1B27045   4.215   5.588   4.273 -0.0670 -0.1229  0.0068
    1DIPC   D2B27046   3.947   5.896   4.447 -0.0061  0.0841  0.1716
    1DIPC   D3B27047   4.157   5.569   4.789  0.0993  0.3113 -0.0459
    1DIPC   C4B27048   4.539   5.340   4.650 -0.0570 -0.0117  0.0920
    1DIPC   NC327049  27.088  11.500   1.986  0.5074 -0.0301 -0.1496
    1DIPC   PO427050  27.392  11.950   1.907  0.0769  0.0141  0.2457
    1DIPC   GL127051  27.293  12.240   2.206  0.1357 -0.0973 -0.0222
    1DIPC   GL227052  27.206  12.101   2.499  0.1424 -0.1335  0.1397
    1DIPC   C1A27053  27.557  12.468   2.524  0.0522 -0.1343 -0.2555
    1DIPC   D2A27054  27.764  12.665   2.839  0.0527  0.2894  0.1443
    1DIPC   D3A27055  27.426  12.644   3.124  0.0488  0.1589  0.0203
    1DIPC   C4A27056  27.323  12.956   3.468  0.1683 -0.0706  0.0121
    1DIPC   C1B27057  27.128  12.418   2.787  0.3750 -0.1013  0.1520
    1DIPC   D2B27058  27.096  12.270   3.161 -0.0299  0.3126 -0.2225
    1DIPC   D3B27059  27.180  11.959   3.480 -0.0564 -0.1701 -0.1924
    1DIPC   C4B27060  27.141  12.096   3.906 -0.1361  0.1504 -0.1411
    1DIPC   NC327061   3.657  15.811   2.011 -0.3226 -0.3342  0.1852
    1DIPC   PO427062   4.010  15.471   1.859  0.2651 -0.0601  0.1366
    1DIPC   GL127063   3.977  15.364   2.316  0.0276  0.2781  0.3225
    1DIPC   GL227064   4.218  15.239   2.512  0.4008 -0.1059  0.2521
    1DIPC   C1A27065   3.720  15.428   2.609 -0.1667  0.2109  0.0264
    1DIPC   D2A27066   3.470  15.338   2.872 -0.0851 -0.4489 -0.1209
    1DIPC   D3A27067   3.429  15.667   3.298 -0.0810 -0.0081 -0.2863
    1DIPC   C4A27068   3.460  15.750   3.709 -0.0799 -0.2120  0.0421
    1DIPC   C1B27069   3.961  15.220   2.958 -0.1671 -0.0841 -0.0474
    1DIPC   D2B27070   3.700  15.171   3.376 -0.1844  0.0719  0.1740
    1DIPC   D3B27071   3.871  15.444   3.761  0.0405 -0.0871  0.1820
    1DIPC   C4B27072   4.168  15.358   4.137  0.1103 -0.1562 -0.1239
    1DIPC   NC327073  21.794   1.654   2.937 -0.1546 -0.2373  0.1276
    1DIPC   PO427074  21.747   2.156   2.843  0.0398  0.2851 -0.0554
    1DIPC   GL127075  22.047   2.044   3.217  0.4019  0.0459 -0.2925
    1DIPC   GL227076  22.285   1.678   3.127  0.4292 -0.3384 -0.0087
    1DIPC   C1A27077  22.068   2.220   3.686 -0.0498  0.1702  0.3411
    1DIPC   D2A27078  22.328   2.003   3.860  0.1806 -0.2692 -0.0887
    1DIPC   D3A27079  22.232   2.134   4.281  0.2627  0.0301 -0.4500
    1DIPC   C4A27080  22.447   2.229   4.687  0.3530 -0.0976 -0.1905
    1DIPC   C1B27081  21.981   1.724   3.599 -0.0552 -0.0736 -0.0600
    1DIPC   D2B27082  22.048   1.630   4.051 -0.0161  0.0906  0.0356
    1DIPC   D3B27083  22.096   1.567   4.490 -0.0386 -0.3495 -0.2692
    1DIPC   C4B27084  21.807   1.161   4.684  0.3938 -0.5051 -0.2600
    1DIPC   NC327085  10.021   5.089   3.246  0.5134 -0.0085 -0.1217
    1DIPC   PO427086   9.526   5.048   3.287 -0.0341 -0.0270 -0.0601
    1DIPC   GL127087   9.302   4.948   3.605 -0.0585 -0.1278  0.0681
    1DIPC   GL227088   9.205   4.606   3.610 -0.1041  0.1813 -0.1229
    1DIPC   C1A27089   9.477   4.760   3.985 -0.0864  0.1519 -0.3616
    1DIPC   D2A27090   9.554   4.837   4.361  0.0887  0.3319 -0.0732
    1DIPC   D3A27091  10.036   4.650   4.353  0.0269  0.0342  0.1130
    1DIPC   C4A27092  10.109   4.580   4.778 -0.1053  0.0626 -0.0340
    1DIPC   C1B27093   9.169   4.376   3.989 -0.1264 -0.0608  0.2827
    1DIPC   D2B27094   9.258   4.135   4.276  0.0481  0.1190 -0.0622
    1DIPC   D3B27095   9.215   4.420   4.543  0.0221  0.2090 -0.3225
    1DIPC   C4B27096   9.491   4.657   4.861 -0.1307 -0.1972  0.1699
    1DIPC   NC327097  28.529  25.679   2.848  0.1104 -0.1223 -0.2155
    1DIPC   PO427098  28.718  26.082   3.029  0.0571 -0.0834  0.1466
    1DIPC   GL127099  29.037  26.202   3.425  0.2141 -0.1577  0.4253
    1DIPC   GL227100  28.854  26.539   3.576  0.1439 -0.0614 -0.0712
    1DIPC   C1A27101  29.257  26.191   3.797  0.0598  0.3396 -0.1138
    1DIPC   D2A27102  29.466  26.360   4.169 -0.2037 -0.1371  0.0165
    1DIPC   D3A27103  29.617  26.078   4.597 -0.0148  0.2259 -0.2753
    1DIPC   C4A27104  29.446  25.680   4.550 -0.1212 -0.1234 -0.1580
    1DIPC   C1B27105  28.746  26.516   3.876  0.0926  0.3952 -0.2981
    1DIPC   D2B27106  28.944  26.511   4.309  0.0738 -0.0637 -0.2531
    1DIPC   D3B27107  28.797  26.685   4.686  0.0661  0.2738  0.0059
    1DIPC   C4B27108  28.538  27.081   4.637 -0.1392  0.2402  0.0762
    1DIPC   NC327109  28.198  19.080   2.504  0.3573  0.1260 -0.1909
    1DIPC   PO427110  28.081  18.691   2.297  0.1152 -0.3488  0.0880
    1DIPC   GL127111  28.074  18.655   2.720  0.2698  0.3526 -0.0469
    1DIPC   GL227112  27.830  18.463   2.770 -0.1176  0.0709 -0.2222
    1DIPC   C1A27113  27.952  18.754   3.195 -0.3190 -0.0597  0.4676
    1DIPC   D2A27114  27.674  18.619   3.508 -0.1146  0.1111 -0.0977
    1DIPC   D3A27115  27.731  18.838   3.804  0.0353 -0.3022  0.3770
    1DIPC   C4A27116  27.536  19.267   3.750 -0.2229 -0.1216  0.3967
    1DIPC   C1B27117  27.907  18.210   3.196  0.1305 -0.1105 -0.1412
    1DIPC   D2B27118  28.088  18.344   3.550  0.2022 -0.2210  0.0106
    1DIPC   D3B27119  28.185  18.152   3.951 -0.1187  0.4556 -0.0941
    1DIPC   C4B27120  28.003  17.830   4.158 -0.1337  0.1266 -0.0683
    1DIPC   NC327121  17.141   3.428   3.700 -0.1746  0.0350  0.0413
    1DIPC   PO427122  17.387   3.070   3.748  0.1070 -0.3125  0.1143
    1DIPC   GL127123  17.054   2.973   4.111 -0.0431  0.0893  0.1721
    1DIPC   GL227124  16.946   2.663   4.221 -0.0168 -0.2217  0.0630
    1DIPC   C1A27125  16.805   2.972   4.525 -0.0155  0.2022 -0.1855
    1DIPC   D2A27126  16.907   2.956   5.020 -0.1855  0.0741  0.2706
    1DIPC   D3A27127  16.812   3.020   5.511 -0.0291 -0.2394 -0.3427
    1DIPC   C4A27128  16.392   2.970   5.725 -0.2196 -0.4698  0.0508
    1DIPC   C1B27129  16.979   2.443   4.563  0.0893  0.1180 -0.0194
    1DIPC   D2B27130  16.947   2.415   4.990  0.1797 -0.0704  0.2435
    1DIPC   D3B27131  17.252   2.638   5.262  0.1821  0.2323 -0.1872
    1DIPC   C4B27132  17.555   2.350   5.473  0.1007  0.0793 -0.2855
    1DIPC   NC327133   7.817  10.442   3.700 -0.1335  0.1213  0.0765
    1DIPC   PO427134   7.454  10.094   3.671 -0.0059 -0.2376 -0.0989
    1DIPC   GL127135   7.646  10.136   4.129  0.0667  0.0740  0.0879
    1DIPC   GL227136   7.814  10.354   4.235 -0.1072 -0.3419  0.0910
    1DIPC   C1A27137   7.441  10.108   4.443  0.1188 -0.4320  0.1065
    1DIPC   D2A27138   7.237  10.275   4.764 -0.1630  0.2841  0.0113
    1DIPC   D3A27139   7.297  10.397   5.259 -0.0380  0.1376  0.0200
    1DIPC   C4A27140   7.070  10.792   5.319 -0.0634  0.1911 -0.0344
    1DIPC   C1B27141   7.730  10.518   4.743  0.0146 -0.2210  0.2123
    1DIPC   D2B27142   7.797  10.557   5.232  0.0950 -0.0037 -0.0626
    1DIPC   D3B27143   7.709  10.114   5.405 -0.0835  0.1908 -0.0193
    1DIPC   C4B27144   7.391   9.868   5.577 -0.1309  0.2688  0.0063
    1DIPC   NC327145  21.646  23.611   2.660 -0.3977  0.1239 -0.0206
    1DIPC   PO427146  21.608  23.612   3.124  0.0867 -0.0276 -0.2167
    1DIPC   GL127147  21.499  23.606   3.543  0.4759 -0.2311 -0.0961
    1DIPC   GL227148  21.183  23.643   3.497  0.0161 -0.0902 -0.0698
    1DIPC   C1A27149  21.436  23.747   4.083  0.0063  0.2248 -0.1741
    1DIPC   D2A27150  21.582  23.967   4.437 -0.0678 -0.2999 -0.2779
    1DIPC   D3A27151  21.291  24.274   4.365 -0.5396 -0.1797 -0.0552
    1DIPC   C4A27152  20.997  24.190   4.041 -0.0607 -0.0400  0.1622
    1DIPC   C1B27153  20.927  23.712   3.781  0.0905 -0.0823 -0.4642
    1DIPC   D2B27154  20.557  23.919   3.890 -0.0789 -0.0362  0.0046
    1DIPC   D3B27155  20.808  23.864   4.305  0.1291  0.2695 -0.1689
    1DIPC   C4B27156  20.549  23.926   4.642  0.0057  0.3018 -0.0262
    1DIPC   NC327157   8.350  17.831   2.791  0.1059  0.2740 -0.2053
    1DIPC   PO427158   7.881  17.972   2.709  0.0516  0.0793  0.1891
    1DIPC   GL127159   7.916  17.931   3.104  0.0929  0.1301 -0.1360
    1DIPC   GL227160   7.643  17.949   3.267 -0.1636  0.2154  0.1253
    1DIPC   C1A27161   8.028  17.902   3.557  0.1342 -0.1638 -0.1077
    1DIPC   D2A27162   8.287  17.840   3.883 -0.0070  0.0902 -0.0134
    1DIPC   D3A27163   8.279  18.273   4.202  0.3937  0.1814  0.0555
    1DIPC   C4A27164   8.503  18.585   4.483 -0.4612  0.2466 -0.2996
    1DIPC   C1B27165   7.576  17.994   3.704 -0.1016 -0.1019  0.0486
    1DIPC   D2B27166   7.811  18.043   4.160 -0.0788  0.5107  0.1592
    1DIPC   D3B27167   7.535  17.827   4.485 -0.1117  0.1347 -0.1386
    1DIPC   C4B27168   7.708  17.717   4.864  0.1528  0.2251 -0.3012
    1DIPC   NC327169   5.803  29.323   3.737  0.1487  0.3179  0.0438
    1DIPC   PO427170   5.465  29.368   4.120 -0.0068 -0.0973  0.0216
    1DIPC   GL127171   5.488  29.715   4.422 -0.0646 -0.0988  0.1411
    1DIPC   GL227172   5.682  29.968   4.289 -0.2711  0.0626 -0.0174
    1DIPC   C1A27173   5.622  29.708   4.945 -0.2615 -0.0444 -0.0382
    1DIPC   D2A27174   5.633  29.503   5.338 -0.0339 -0.2049  0.0121
    1DIPC   D3A27175   5.985  29.628   5.550 -0.1380  0.3117 -0.1233
    1DIPC   C4A27176   6.453  29.559   5.432 -0.3609  0.0616  0.1772
    1DIPC   C1B27177   5.948  29.975   4.608  0.1840  0.0480 -0.0774
    1DIPC   D2B27178   6.040  29.875   5.049  0.4038 -0.0919  0.1104
    1DIPC   D3B27179   6.110  30.065   5.395 -0.0821  0.3170  0.3360
    1DIPC   C4B27180   6.583  30.020   5.331 -0.1368 -0.1640 -0.1681
    1DIPC   NC327181  15.293  26.164   2.529  0.0135  0.0117  0.0461
    1DIPC   PO427182  15.419  25.899   2.827 -0.1394 -0.0973 -0.1229
    1DIPC   GL127183  15.447  26.222   3.044  0.1467  0.2069 -0.2556
    1DIPC   GL227184  15.166  26.342   3.286 -0.0099  0.1328  0.0721
    1DIPC   C1A27185  15.650  26.290   3.449 -0.2763 -0.2814 -0.2070
    1DIPC   D2A27186  15.787  26.489   3.853  0.0747 -0.3188  0.0410
    1DIPC   D3A27187  15.846  26.468   4.327  0.0625  0.1407 -0.0920
    1DIPC   C4A27188  15.582  26.601   4.722 -0.2057 -0.1999  0.0293
    1DIPC   C1B27189  15.179  26.211   3.718  0.0366 -0.0427  0.0187
    1DIPC   D2B27190  14.728  26.101   3.933  0.1442 -0.0204  0.0189
    1DIPC   D3B27191  14.731  25.781   4.247 -0.3253 -0.0577 -0.0036
    1DIPC   C4B27192  14.330  25.888   4.384  0.2085 -0.0118  0.3659
    1DIPC   NC327193   0.640  25.632   2.183 -0.3985  0.1961 -0.1528
    1DIPC   PO427194   0.643  25.134   2.277 -0.2193 -0.3696  0.0458
    1DIPC   GL127195   0.890  25.205   2.600 -0.1371 -0.0966 -0.2222
    1DIPC   GL227196   1.074  24.888   2.623  0.0026  0.1722  0.3035
    1DIPC   C1A27197   1.009  25.514   2.892 -0.1748 -0.3203 -0.1280
    1DIPC   D2A27198   1.238  25.616   3.319  0.0796 -0.0164 -0.3169
    1DIPC   D3A27199   1.364  25.950   3.058  0.2117 -0.3526 -0.0352
    1DIPC   C4A27200   1.186  26.384   3.132 -0.2096  0.2351 -0.1769
    1DIPC   C1B27201   1.435  25.148   2.675 -0.1310 -0.2811 -0.0653
    1DIPC   D2B27202   1.602  25.557   2.848 -0.1138 -0.0374  0.0636
    1DIPC   D3B27203   1.482  25.196   3.221  0.1689  0.0727  0.0675
    1DIPC   C4B27204   1.147  25.095   3.343  0.1222 -0.2694 -0.1532
    1DIPC   NC327205   5.691  28.445   2.710 -0.0629  0.0327 -0.5219
    1DIPC   PO427206   5.519  28.172   3.046  0.0654 -0.1001 -0.2143
    1DIPC   GL127207   5.742  27.875   3.228  0.1141 -0.2196  0.0667
    1DIPC   GL227208   5.858  27.564   3.104  0.2450  0.0263 -0.1206
    1DIPC   C1A27209   5.783  27.759   3.683  0.0260 -0.1645  0.1876
    1DIPC   D2A27210   5.386  27.721   3.903  0.1011 -0.0865  0.2286
    1DIPC   D3A27211   5.607  27.636   4.305 -0.0703 -0.0881 -0.0607
    1DIPC   C4A27212   5.426  27.849   4.642  0.3189 -0.1096  0.0929
    1DIPC   C1B27213   6.188  27.451   3.410 -0.0383 -0.1188  0.6658
    1DIPC   D2B27214   6.649  27.432   3.407  0.1883  0.0332 -0.0174
    1DIPC   D3B27215   6.835  27.504   3.834 -0.0555  0.0665 -0.2821
    1DIPC   C4B27216   7.152  27.349   4.103 -0.0200  0.1353  0.0805
    1DIPC   NC327217   0.399  23.983   2.022 -0.1895  0.0457 -0.2381
    1DIPC   PO427218   0.360  24.234   2.426  0.0565 -0.1530 -0.0853
    1DIPC   GL127219   0.523  24.127   2.801  0.1005 -0.0169 -0.2196
    1DIPC   GL227220   0.469  24.377   2.934 -0.2926 -0.0753 -0.2263
    1DIPC   C1A27221   0.636  23.754   3.050  0.0328  0.0833 -0.2789
    1DIPC   D2A27222   0.724  23.654   3.486 -0.4527 -0.2092 -0.1535
    1DIPC   D3A27223   0.441  23.479   3.765 -0.1443  0.0714  0.0673
    1DIPC   C4A27224   0.729  23.214   3.954  0.2113 -0.1324  0.0346
    1DIPC   C1B27225   0.309  24.069   3.326 -0.3458  0.2293  0.1206
    1DIPC   D2B27226   0.279  23.997   3.768 -0.3157 -0.1773 -0.0570
    1DIPC   D3B27227  -0.125  23.800   3.919  0.0789  0.3064  0.0566
    1DIPC   C4B27228   0.029  23.468   4.127 -0.1852 -0.0167  0.2434
    1DIPC   NC327229  26.322  10.803   1.904  0.1038  0.1883  0.0180
    1DIPC   PO427230  26.412  11.181   2.051  0.2165 -0.0512  0.3529
    1DIPC   GL127231  26.349  11.262   2.536  0.0555  0.2372 -0.2847
    1DIPC   GL227232  26.132  11.499   2.641 -0.2100 -0.0015  0.0262
    1DIPC   C1A27233  26.588  11.483   2.898 -0.0218 -0.5146  0.2650
    1DIPC   D2A27234  26.812  11.816   3.194  0.0789  0.3770 -0.2188
    1DIPC   D3A27235  26.509  11.711   3.428  0.2970  0.1824  0.0610
    1DIPC   C4A27236  26.490  11.486   3.813 -0.2179  0.0342 -0.1500
    1DIPC   C1B27237  26.147  11.805   2.873  0.1241  0.3887 -0.2263
    1DIPC   D2B27238  26.478  12.198   3.098 -0.0093 -0.0251  0.0914
    1DIPC   D3B27239  26.149  12.357   3.275  0.2654  0.0555 -0.0314
    1DIPC   C4B27240  25.864  12.229   3.573 -0.2733 -0.2070  0.3621
    1DIPC   NC327241   2.413   7.895   2.518  0.0537 -0.2424 -0.1301
    1DIPC   PO427242   2.569   7.735   2.929 -0.0818 -0.0445 -0.1031
    1DIPC   GL127243   2.318   7.714   3.313 -0.0677 -0.0174 -0.0011
    1DIPC   GL227244   2.318   7.376   3.509 -0.3978 -0.1231 -0.2932
    1DIPC   C1A27245   2.162   8.024   3.594 -0.0759  0.0510 -0.0074
    1DIPC   D2A27246   2.135   8.235   3.961  0.3020  0.0834 -0.2342
    1DIPC   D3A27247   1.784   7.929   4.204 -0.1646  0.0728  0.1474
    1DIPC   C4A27248   1.432   7.994   4.450  0.0894 -0.1304 -0.1191
    1DIPC   C1B27249   2.160   7.552   3.835 -0.0515  0.0003 -0.1298
    1DIPC   D2B27250   2.270   7.829   4.245  0.1018  0.0317  0.2946
    1DIPC   D3B27251   1.972   7.599   4.501 -0.0425 -0.0497  0.0950
    1DIPC   C4B27252   1.794   7.145   4.560 -0.2097 -0.0500 -0.2310
    1DIPC   NC327253  28.872   1.124   2.859  0.4744  0.0411  0.0018
    1DIPC   PO427254  29.162   1.457   2.993  0.3140 -0.0980 -0.2776
    1DIPC   GL127255  28.888   1.334   3.338  0.0290 -0.2551  0.2085
    1DIPC   GL227256  28.711   1.085   3.302 -0.2622  0.3530  0.0937
    1DIPC   C1A27257  28.711   1.465   3.681  0.1015 -0.0280 -0.1405
    1DIPC   D2A27258  28.564   1.525   4.080 -0.1670  0.1093 -0.3362
    1DIPC   D3A27259  28.222   1.758   4.208  0.0568  0.0626 -0.2353
    1DIPC   C4A27260  27.909   1.900   4.539  0.2955  0.4321 -0.0033
    1DIPC   C1B27261  28.567   0.875   3.610 -0.4779  0.0746 -0.2250
    1DIPC   D2B27262  28.458   1.077   3.997  0.0336 -0.0732 -0.2700
    1DIPC   D3B27263  28.167   0.924   4.232 -0.0336 -0.2062 -0.0708
    1DIPC   C4B27264  28.118   0.521   4.510 -0.1554  0.1750 -0.0986
    1DIPC   NC327265   0.864  29.054   3.440 -0.0922 -0.0001 -0.0284
    1DIPC   PO427266   0.518  29.016   3.409  0.4045 -0.1152 -0.1548
    1DIPC   GL127267   0.461  28.689   3.718  0.5115  0.1979 -0.3661
    1DIPC   GL227268   0.546  28.362   3.680 -0.0038  0.1064 -0.2493
    1DIPC   C1A27269   0.339  28.539   4.146 -0.1189 -0.1433  0.0021
    1DIPC   D2A27270   0.334  28.292   4.473  0.2032  0.0095 -0.1573
    1DIPC   D3A27271   0.045  27.927   4.679 -0.0088 -0.0581 -0.2838
    1DIPC   C4A27272  -0.109  27.758   5.022 -0.0185  0.1686 -0.0176
    1DIPC   C1B27273   0.653  28.123   4.025 -0.0921  0.0123  0.0942
    1DIPC   D2B27274   1.061  28.282   4.318  0.0237  0.0404 -0.0177
    1DIPC   D3B27275   0.904  27.946   4.475 -0.2010 -0.0338 -0.0195
    1DIPC   C4B27276   0.900  27.594   4.295  0.1420  0.1721  0.0119
    1DIPC   NC327277   8.703   6.663   3.279  0.2043  0.0690  0.0938
    1DIPC   PO427278   8.702   6.987   3.524  0.0042  0.0333  0.0235
    1DIPC   GL127279   8.882   7.207   3.841  0.2911  0.2693 -0.1302
    1DIPC   GL227280   9.082   7.092   4.078 -0.0712 -0.1802 -0.0890
    1DIPC   C1A27281   8.617   7.267   4.274 -0.2105 -0.1240  0.2289
    1DIPC   D2A27282   8.404   7.185   4.554 -0.0626  0.1941 -0.0909
    1DIPC   D3A27283   8.594   7.537   4.810  0.0696 -0.1768  0.3161
    1DIPC   C4A27284   8.375   7.487   5.123  0.0617 -0.1523 -0.1351
    1DIPC   C1B27285   8.975   7.052   4.553  0.0345  0.0673 -0.0943
    1DIPC   D2B27286   9.053   7.231   4.950  0.0487  0.2021 -0.0686
    1DIPC   D3B27287   9.374   7.314   4.631  0.2500 -0.3567 -0.4087
    1DIPC   C4B27288   9.222   7.480   4.259 -0.0723  0.4644 -0.0564
    1DIPC   NC327289  23.504   7.521   2.433 -0.3060 -0.5237 -0.0902
    1DIPC   PO427290  23.808   7.667   2.814  0.0818 -0.1253 -0.1295
    1DIPC   GL127291  23.867   7.774   3.176 -0.2405 -0.0925 -0.0261
    1DIPC   GL227292  24.164   7.707   3.188  0.2060 -0.0413  0.1923
    1DIPC   C1A27293  23.779   7.906   3.629 -0.0409  0.0186  0.1012
    1DIPC   D2A27294  23.679   8.182   4.093  0.0070  0.0781  0.1083
    1DIPC   D3A27295  23.702   8.532   4.353  0.1054 -0.4100 -0.1908
    1DIPC   C4A27296  23.971   8.449   4.830 -0.0345  0.0997 -0.1008
    1DIPC   C1B27297  24.453   7.689   3.566 -0.0681 -0.0853  0.0192
    1DIPC   D2B27298  24.610   7.677   3.914 -0.0827 -0.0582  0.1232
    1DIPC   D3B27299  24.295   7.487   4.254 -0.1066  0.1460  0.0484
    1DIPC   C4B27300  24.265   7.638   4.723 -0.0722  0.1435 -0.0458
    1DIPC   NC327301   8.506   9.890   3.875  0.2858 -0.1842 -0.1910
    1DIPC   PO427302   8.293  10.341   3.934  0.0015 -0.0406 -0.0975
    1DIPC   GL127303   8.244  10.160   4.289 -0.2415 -0.0860  0.2086
    1DIPC   GL227304   8.085   9.873   4.183  0.2641  0.2494  0.0037
    1DIPC   C1A27305   8.091  10.103   4.659 -0.1142 -0.2264  0.2081
    1DIPC   D2A27306   7.711   9.980   4.930  0.1910 -0.1818 -0.2055
    1DIPC   D3A27307   8.008   9.778   5.131  0.0952  0.1842 -0.0603
    1DIPC   C4A27308   8.049   9.702   5.502 -0.1925 -0.2434  0.0447
    1DIPC   C1B27309   7.899   9.717   4.471  0.0883  0.0252  0.0212
    1DIPC   D2B27310   7.859   9.425   4.792 -0.0189  0.0887  0.0210
    1DIPC   D3B27311   7.453   9.567   5.177  0.0769 -0.0446  0.0551
    1DIPC   C4B27312   7.108   9.886   5.095 -0.0067 -0.1857  0.2076
    1DIPC   NC327313   4.172  11.444   2.722 -0.0762  0.2133  0.1382
    1DIPC   PO427314   3.993  11.543   3.206 -0.1910  0.0865  0.2886
    1DIPC   GL127315   4.061  11.937   3.309 -0.1264  0.0078  0.1939
    1DIPC   GL227316   3.835  11.897   3.569 -0.1499 -0.4085  0.1039
    1DIPC   C1A27317   4.161  12.288   3.668  0.0274  0.2774 -0.0950
    1DIPC   D2A27318   4.143  12.563   4.006  0.0892  0.0353 -0.0427
    1DIPC   D3A27319   3.755  12.446   4.229 -0.0795 -0.0884  0.2003
    1DIPC   C4A27320   3.762  12.065   4.506 -0.0714  0.0158 -0.4191
    1DIPC   C1B27321   3.984  11.962   4.047  0.3521  0.0455  0.2771
    1DIPC   D2B27322   4.171  12.272   4.445 -0.2891 -0.2610  0.3125
    1DIPC   D3B27323   4.150  12.771   4.471 -0.1908 -0.1516 -0.1801
    1DIPC   C4B27324   4.332  13.028   4.846 -0.0994 -0.2312  0.1789
    1DIPC   NC327325   0.754  12.648   1.995 -0.1384 -0.3264  0.0873
    1DIPC   PO427326   0.392  12.450   2.083  0.2227  0.1103  0.0428
    1DIPC   GL127327   0.518  12.706   2.393  0.0063 -0.0213  0.3710
    1DIPC   GL227328   0.793  12.803   2.685 -0.0153  0.1182  0.3000
    1DIPC   C1A27329   0.354  13.016   2.721  0.3072  0.1638 -0.1926
    1DIPC   D2A27330   0.049  13.181   3.085  0.1901  0.3104 -0.0320
    1DIPC   D3A27331   0.243  13.581   3.227 -0.6525  0.3702 -0.0229
    1DIPC   C4A27332   0.015  13.804   3.465  0.1704  0.0039 -0.1572
    1DIPC   C1B27333   0.938  12.951   3.053 -0.0946  0.1830 -0.0505
    1DIPC   D2B27334   0.884  13.083   3.512 -0.1383 -0.0654  0.1937
    1DIPC   D3B27335   0.592  12.914   3.814 -0.2332  0.1570  0.0543
    1DIPC   C4B27336   0.241  12.798   3.647 -0.0652 -0.0995  0.1003
    1DIPC   NC327337   4.218  28.507   3.147 -0.0697  0.4673 -0.1078
    1DIPC   PO427338   4.296  28.406   3.549 -0.2255  0.0123 -0.1509
    1DIPC   GL127339   4.403  28.027   3.798  0.1490 -0.0752  0.2650
    1DIPC   GL227340   4.297  27.739   3.663 -0.0025  0.1584 -0.3513
    1DIPC   C1A27341   4.550  27.636   4.047  0.2788  0.0723 -0.1900
    1DIPC   D2A27342   4.242  27.197   4.190 -0.1693  0.1577  0.0862
    1DIPC   D3A27343   4.547  26.930   4.393  0.0102 -0.0625  0.5369
    1DIPC   C4A27344   4.903  27.044   4.272 -0.0855 -0.0776 -0.0861
    1DIPC   C1B27345   4.051  27.745   4.174 -0.1693 -0.0017 -0.0799
    1DIPC   D2B27346   3.680  27.715   4.519  0.1585 -0.0449 -0.0134
    1DIPC   D3B27347   3.627  28.065   4.893  0.0993  0.2835  0.1309
    1DIPC   C4B27348   3.960  28.024   5.114  0.0730 -0.1071 -0.0464
    1DIPC   NC327349  27.762   2.286   2.317 -0.1279 -0.3135  0.0427
    1DIPC   PO427350  28.147   2.495   2.539 -0.0055  0.2281  0.1873
    1DIPC   GL127351  28.143   2.535   3.027 -0.0195  0.0589  0.0716
    1DIPC   GL227352  28.355   2.643   3.253  0.1752  0.0215 -0.5514
    1DIPC   C1A27353  28.274   2.121   3.305 -0.1836 -0.0380  0.2820
    1DIPC   D2A27354  28.519   1.879   3.511  0.0711  0.3371  0.1687
    1DIPC   D3A27355  28.079   1.769   3.534  0.0740  0.1114  0.3527
    1DIPC   C4A27356  27.823   2.198   3.619  0.2192  0.0202 -0.0420
    1DIPC   C1B27357  28.299   2.445   3.712 -0.1789 -0.1903 -0.2911
    1DIPC   D2B27358  28.080   2.245   4.026 -0.0549  0.0293  0.3390
    1DIPC   D3B27359  28.269   2.340   4.347 -0.1154 -0.1581 -0.1541
    1DIPC   C4B27360  28.387   2.018   4.586 -0.1375 -0.0301 -0.1911
    1DIPC   NC327361   2.213  13.784   1.718 -0.1076  0.0466 -0.0250
    1DIPC   PO427362   2.441  13.596   1.988 -0.0900 -0.0340 -0.4177
    1DIPC   GL127363   2.450  13.715   2.409 -0.2213  0.1790 -0.1133
    1DIPC   GL227364   2.741  13.758   2.615 -0.0124 -0.1013  0.3029
    1DIPC   C1A27365   2.144  13.668   2.668  0.1963  0.1523 -0.1008
    1DIPC   D2A27366   1.632  13.821   2.688 -0.1001 -0.1263 -0.0309
    1DIPC   D3A27367   1.518  13.849   3.109 -0.0539 -0.2001  0.0370
    1DIPC   C4A27368   1.186  14.236   3.151 -0.1987  0.3461 -0.0773
    1DIPC   C1B27369   2.939  13.385   2.934 -0.1814 -0.0817 -0.0361
    1DIPC   D2B27370   3.246  13.036   3.039 -0.0138  0.1532  0.2038
    1DIPC   D3B27371   3.314  13.284   3.372 -0.0891  0.1739 -0.1314
    1DIPC   C4B27372   3.309  13.210   3.808 -0.1396  0.1153 -0.0501
    1DIPC   NC327373  22.503  20.158   2.269  0.3053  0.1333  0.1763
    1DIPC   PO427374  22.936  20.246   2.270 -0.2582 -0.0614  0.3263
    1DIPC   GL127375  22.754  20.241   2.695 -0.1167  0.0364 -0.1299
    1DIPC   GL227376  22.841  20.496   2.848 -0.1605  0.1152 -0.1773
    1DIPC   C1A27377  22.955  19.848   2.962  0.1582  0.0374 -0.0906
    1DIPC   D2A27378  23.055  19.433   2.811 -0.1216  0.1091 -0.1502
    1DIPC   D3A27379  23.313  19.517   3.206  0.0891 -0.0047  0.0456
    1DIPC   C4A27380  23.765  19.710   3.258 -0.0083  0.2817  0.1478
    1DIPC   C1B27381  22.815  20.677   3.149  0.1309  0.0458  0.2253
    1DIPC   D2B27382  22.869  20.778   3.522  0.2576 -0.1795 -0.0431
    1DIPC   D3B27383  22.827  20.436   3.796  0.1687 -0.2920  0.0755
    1DIPC   C4B27384  22.494  20.162   3.664 -0.1933  0.1310 -0.1383
    1DIPC   NC327385   6.271  11.840   3.470  0.0185  0.2086 -0.0421
    1DIPC   PO427386   6.383  12.183   3.517 -0.1411 -0.0283 -0.1997
    1DIPC   GL127387   6.024  12.303   3.713 -0.1392 -0.2274  0.0057
    1DIPC   GL227388   6.106  12.400   3.964  0.4110  0.1616  0.2035
    1DIPC   C1A27389   5.607  12.355   4.050 -0.1989 -0.0867 -0.0268
    1DIPC   D2A27390   5.377  12.382   4.405  0.2263 -0.1770 -0.2506
    1DIPC   D3A27391   5.405  11.914   4.252 -0.2359  0.3034  0.1981
    1DIPC   C4A27392   5.151  11.685   3.945  0.2910  0.1338 -0.0816
    1DIPC   C1B27393   5.976  12.455   4.359  0.0151  0.0335  0.1742
    1DIPC   D2B27394   6.027  12.401   4.787  0.0872 -0.0538 -0.0222
    1DIPC   D3B27395   5.949  12.802   4.795  0.1190 -0.1451  0.0181
    1DIPC   C4B27396   5.663  13.068   4.942  0.0937  0.0939  0.2749
    1DIPC   NC327397   3.732  20.072   1.341 -0.0315  0.0675  0.2262
    1DIPC   PO427398   4.021  19.776   1.461  0.0844  0.3289 -0.0090
    1DIPC   GL127399   3.872  19.705   1.797  0.0245 -0.3897 -0.0435
    1DIPC   GL227400   4.147  19.694   1.977 -0.2056  0.1771 -0.2076
    1DIPC   C1A27401   3.661  19.812   2.166  0.0039 -0.0170 -0.2790
    1DIPC   D2A27402   3.290  19.911   2.365 -0.0342 -0.0290 -0.3574
    1DIPC   D3A27403   3.273  20.285   2.145 -0.0177  0.3638 -0.1291
    1DIPC   C4A27404   3.635  20.620   2.155  0.1671  0.0924 -0.0359
    1DIPC   C1B27405   4.017  19.562   2.381 -0.0160 -0.0241 -0.0935
    1DIPC   D2B27406   4.327  19.361   2.615 -0.2546  0.2512  0.2957
    1DIPC   D3B27407   3.927  19.567   2.876  0.1356 -0.1538 -0.1337
    1DIPC   C4B27408   3.668  19.763   2.729 -0.1703 -0.0386  0.1469
    1DIPC   NC327409   6.362  18.419   2.168 -0.2176 -0.0209 -0.0218
    1DIPC   PO427410   5.956  18.348   1.924 -0.0854  0.1769 -0.0027
    1DIPC   GL127411   5.886  18.498   2.332  0.1270  0.0329  0.1460
    1DIPC   GL227412   5.745  18.860   2.208  0.0933  0.2730 -0.2867
    1DIPC   C1A27413   5.951  18.532   2.824 -0.0806 -0.0991  0.1316
    1DIPC   D2A27414   5.847  18.518   3.279 -0.0294  0.2802  0.1768
    1DIPC   D3A27415   5.581  18.601   3.624  0.0249 -0.0389  0.0419
    1DIPC   C4A27416   5.442  18.176   3.789 -0.0296 -0.1627 -0.0930
    1DIPC   C1B27417   5.523  19.040   2.632  0.3670  0.1927  0.2694
    1DIPC   D2B27418   5.200  18.892   2.919 -0.0709  0.0401 -0.1225
    1DIPC   D3B27419   5.071  18.916   3.343  0.1940 -0.3841 -0.0861
    1DIPC   C4B27420   4.626  18.809   3.404  0.1317 -0.2109  0.0345
    1DIPC   NC327421  10.767   6.607   3.364 -0.3172  0.0444 -0.6339
    1DIPC   PO427422  10.893   7.018   3.191  0.1999  0.2140  0.1816
    1DIPC   GL127423  10.988   7.238   3.480  0.3710 -0.0091 -0.0369
    1DIPC   GL227424  10.657   7.355   3.553 -0.1545  0.3065  0.0517
    1DIPC   C1A27425  11.066   7.176   3.860  0.3387  0.0488  0.1978
    1DIPC   D2A27426  10.912   7.214   4.290 -0.0907  0.0966 -0.3313
    1DIPC   D3A27427  11.306   7.062   4.348 -0.0393  0.3316  0.0199
    1DIPC   C4A27428  11.460   6.848   3.963 -0.0678  0.3954  0.1888
    1DIPC   C1B27429  10.310   7.133   3.904  0.2261  0.1384 -0.1389
    1DIPC   D2B27430   9.974   7.084   3.896  0.2739 -0.1248  0.0157
    1DIPC   D3B27431   9.704   7.197   4.223 -0.0158  0.2512 -0.0067
    1DIPC   C4B27432   9.685   7.608   4.361 -0.0751  0.1982 -0.0558
    1DIPC   NC327433  12.672  29.395   3.513 -0.0182  0.0792  0.2848
    1DIPC   PO427434  12.577  29.815   3.450  0.0371 -0.0804  0.1464
    1DIPC   GL127435  12.339  29.677   3.786 -0.2167  0.0652 -0.0424
    1DIPC   GL227436  12.191  29.972   4.029 -0.1588 -0.0589 -0.0158
    1DIPC   C1A27437  12.155  29.266   4.019  0.0301 -0.3458 -0.0703
    1DIPC   D2A27438  11.846  28.984   3.783 -0.0444  0.0579  0.0635
    1DIPC   D3A27439  11.492  29.186   3.505 -0.2556 -0.1606 -0.2577
    1DIPC   C4A27440  11.138  29.278   3.778 -0.2965 -0.0819 -0.0026
    1DIPC   C1B27441  12.453  29.639   4.257  0.1404  0.0619  0.2022
    1DIPC   D2B27442  12.748  29.593   4.692 -0.0473 -0.2306  0.2078
    1DIPC   D3B27443  12.440  29.535   4.988 -0.1231 -0.1071 -0.3017
    1DIPC   C4B27444  12.355  29.369   5.515  0.2207  0.1237 -0.0489
    1DIPC   NC327445  30.038  12.510   1.944 -0.1412 -0.2845 -0.0316
    1DIPC   PO427446  29.801  12.842   2.035 -0.0309  0.0499 -0.0213
    1DIPC   GL127447  29.881  12.612   2.409 -0.1214  0.2389 -0.2116
    1DIPC   GL227448  30.194  12.500   2.451  0.1756 -0.1958 -0.0895
    1DIPC   C1A27449  30.001  12.701   2.832 -0.1177 -0.2012 -0.1806
    1DIPC   D2A27450  30.204  12.729   3.226  0.2189  0.2732 -0.0889
    1DIPC   D3A27451  29.882  12.665   3.692 -0.2146 -0.0255  0.1020
    1DIPC   C4A27452  29.539  12.363   3.781 -0.0673 -0.2542 -0.0067
    1DIPC   C1B27453  30.442  12.412   2.916 -0.2775 -0.0898  0.1549
    1DIPC   D2B27454  30.426  12.303   3.276 -0.0907  0.0517  0.0074
    1DIPC   D3B27455  30.173  12.330   3.556  0.0394  0.2449  0.1289
    1DIPC   C4B27456  30.021  12.182   3.824 -0.1233  0.4395  0.0232
    1DIPC   NC327457  21.513   7.688   3.299 -0.2605 -0.0223 -0.0614
    1DIPC   PO427458  21.917   7.873   3.431 -0.0183  0.3456 -0.2014
    1DIPC   GL127459  22.175   7.935   3.658  0.3538 -0.1033  0.0525
    1DIPC   GL227460  22.065   8.125   4.019  0.0696  0.1402  0.1189
    1DIPC   C1A27461  22.417   7.701   3.930 -0.0380 -0.3543  0.0399
    1DIPC   D2A27462  22.767   7.795   4.148 -0.1942 -0.2261  0.0494
    1DIPC   D3A27463  22.697   7.700   4.540  0.1651  0.1732 -0.1352
    1DIPC   C4A27464  22.847   7.267   4.851 -0.0364 -0.1376 -0.0400
    1DIPC   C1B27465  22.358   8.099   4.389  0.1843 -0.2099  0.0150
    1DIPC   D2B27466  22.486   8.081   4.850 -0.0597 -0.0891  0.0394
    1DIPC   D3B27467  22.108   8.119   5.153 -0.5169  0.1904 -0.1375
    1DIPC   C4B27468  22.090   7.741   5.343 -0.0091 -0.0673  0.1866
    1DIPC   NC327469  10.660  25.276   2.117 -0.2586 -0.0287  0.1655
    1DIPC   PO427470  10.350  25.615   2.324  0.0376 -0.1901  0.0530
    1DIPC   GL127471  10.115  25.718   2.687  0.1997  0.1316 -0.1764
    1DIPC   GL227472   9.968  25.916   2.952  0.2149  0.0074 -0.0038
    1DIPC   C1A27473  10.052  25.407   2.997 -0.0139  0.0730 -0.0431
    1DIPC   D2A27474  10.212  25.223   3.277  0.0773  0.2603  0.0560
    1DIPC   D3A27475  10.149  25.374   3.693 -0.0269  0.2576  0.1909
    1DIPC   C4A27476  10.414  25.356   4.142 -0.1331 -0.1077 -0.2520
    1DIPC   C1B27477   9.782  25.572   3.338 -0.4450  0.0708  0.0086
    1DIPC   D2B27478   9.684  25.341   3.797  0.0027  0.0756  0.0731
    1DIPC   D3B27479   9.808  25.107   4.130  0.0844  0.1528 -0.0418
    1DIPC   C4B27480   9.500  25.267   4.484  0.3239 -0.0135 -0.1392
    1DIPC   NC327481   5.425   2.705   3.862  0.3214 -0.1114 -0.0775
    1DIPC   PO427482   5.459   2.306   3.613  0.2918  0.0163  0.0861
    1DIPC   GL127483   5.578   2.216   4.007 -0.2197  0.2055  0.2592
    1DIPC   GL227484   5.851   1.958   4.148  0.2425  0.1291 -0.2226
    1DIPC   C1A27485   5.376   2.322   4.346 -0.0654  0.1456 -0.2221
    1DIPC   D2A27486   5.716   2.320   4.667 -0.0378  0.2187  0.0770
    1DIPC   D3A27487   5.585   2.739   4.818 -0.1158  0.1354 -0.0806
    1DIPC   C4A27488   5.911   2.814   5.135 -0.0890  0.0631 -0.1387
    1DIPC   C1B27489   5.614   1.828   4.522 -0.2294 -0.0443 -0.1971
    1DIPC   D2B27490   5.448   1.972   4.881 -0.0408 -0.0498  0.1202
    1DIPC   D3B27491   5.480   1.493   4.990 -0.1460 -0.3426 -0.0089
    1DIPC   C4B27492   5.019   1.208   5.076  0.0095 -0.0414  0.2233
    1DIPC   NC327493  26.168  22.880   2.314 -0.0848 -0.1394 -0.2412
    1DIPC   PO427494  26.155  23.271   2.518 -0.1424  0.1276 -0.0467
    1DIPC   GL127495  25.790  23.119   2.890  0.1338  0.1886 -0.0150
    1DIPC   GL227496  25.967  22.877   2.923  0.0462 -0.0697  0.2413
    1DIPC   C1A27497  25.350  22.989   3.162 -0.4084  0.1767 -0.0123
    1DIPC   D2A27498  24.967  22.953   3.236  0.3554 -0.0294 -0.2795
    1DIPC   D3A27499  25.013  22.520   3.328 -0.0416 -0.4415 -0.1207
    1DIPC   C4A27500  25.411  22.347   3.045  0.1410 -0.0564 -0.2641
    1DIPC   C1B27501  25.767  22.636   3.255 -0.2399 -0.0155  0.0539
    1DIPC   D2B27502  25.595  22.487   3.734 -0.0392  0.0236  0.2803
    1DIPC   D3B27503  25.159  22.434   3.900  0.0670 -0.0168 -0.0381
    1DIPC   C4B27504  25.110  22.637   4.200  0.0624  0.1368  0.0657
    1DIPC   NC327505   0.002   9.188   2.583 -0.1741 -0.1341 -0.0410
    1DIPC   PO427506   0.194   9.684   2.473  0.3946  0.0010  0.3921
    1DIPC   GL127507   0.378   9.599   2.870  0.0824  0.1855  0.1286
    1DIPC   GL227508   0.474   9.164   2.958 -0.2933  0.0225 -0.2677
    1DIPC   C1A27509   0.311   9.441   3.347 -0.4541 -0.0035 -0.2114
    1DIPC   D2A27510   0.199   9.444   3.734 -0.1130 -0.3825 -0.2140
    1DIPC   D3A27511   0.657   9.304   3.665  0.0871 -0.0748  0.3248
    1DIPC   C4A27512   0.705   8.942   3.722  0.1522 -0.3169  0.2717
    1DIPC   C1B27513   0.807   9.029   3.230  0.0378 -0.0014  0.1605
    1DIPC   D2B27514   1.069   8.813   3.252 -0.2986 -0.1271 -0.0174
    1DIPC   D3B27515   0.759   8.499   3.125 -0.0927 -0.3313 -0.0344
    1DIPC   C4B27516   0.388   8.641   3.443  0.1454  0.2092  0.0250
    1DIPC   NC327517  26.829  25.954   2.966  0.1274  0.3284  0.1878
    1DIPC   PO427518  26.550  25.547   2.971 -0.0324 -0.0360 -0.0985
    1DIPC   GL127519  26.819  25.544   3.410 -0.2846  0.2999  0.3087
    1DIPC   GL227520  27.049  25.259   3.403 -0.1461 -0.0736  0.0355
    1DIPC   C1A27521  26.842  25.683   3.896 -0.2423  0.0270 -0.1831
    1DIPC   D2A27522  26.627  25.801   4.181  0.1013  0.0134  0.0062
    1DIPC   D3A27523  26.306  25.616   4.369  0.0855  0.2500 -0.1158
    1DIPC   C4A27524  25.930  25.776   4.364  0.0458 -0.4261 -0.0059
    1DIPC   C1B27525  27.183  25.325   3.862  0.2694  0.3620 -0.1638
    1DIPC   D2B27526  27.213  24.843   4.121  0.2880  0.0820  0.0190
    1DIPC   D3B27527  27.085  25.033   4.524  0.0979 -0.0277 -0.2904
    1DIPC   C4B27528  26.872  24.853   4.906  0.1165  0.4267  0.2568
    1DIPC   NC327529  18.263  25.096   2.947 -0.0632 -0.1049  0.2514
    1DIPC   PO427530  18.389  24.672   3.048  0.0461 -0.2244  0.1387
    1DIPC   GL127531  18.167  24.796   3.345  0.2490  0.1825 -0.0733
    1DIPC   GL227532  17.841  24.538   3.387 -0.1494  0.1018 -0.2365
    1DIPC   C1A27533  18.129  24.869   3.883  0.0285  0.0497  0.3389
    1DIPC   D2A27534  18.023  24.775   4.219  0.1170  0.3716  0.1498
    1DIPC   D3A27535  18.005  24.982   4.579 -0.2662  0.1509  0.1584
    1DIPC   C4A27536  17.618  25.028   4.781  0.0826  0.1423 -0.0923
    1DIPC   C1B27537  17.673  24.578   3.909 -0.1360  0.2045  0.0559
    1DIPC   D2B27538  17.530  24.427   4.346  0.2183  0.1687  0.1876
    1DIPC   D3B27539  17.838  24.477   4.630 -0.1899 -0.0455  0.1643
    1DIPC   C4B27540  18.220  24.260   4.662 -0.1260 -0.0976 -0.2994
    1DIPC   NC327541  29.987   1.864   2.724 -0.0832  0.1292  0.0018
    1DIPC   PO427542  29.958   1.842   3.229  0.0172  0.2037  0.3709
    1DIPC   GL127543  29.821   1.966   3.596  0.1891 -0.3993  0.0900
    1DIPC   GL227544  29.879   2.326   3.512  0.0965  0.0468  0.1337
    1DIPC   C1A27545  29.846   2.162   4.023  0.4211  0.1454  0.4771
    1DIPC   D2A27546  29.588   2.005   4.336  0.1039 -0.1044 -0.0234
    1DIPC   D3A27547  29.811   2.431   4.519  0.0942 -0.1083 -0.2392
    1DIPC   C4A27548  30.119   2.430   4.832  0.6283 -0.2066 -0.0620
    1DIPC   C1B27549  30.128   2.535   3.751  0.0088  0.2178 -0.1256
    1DIPC   D2B27550  30.337   2.327   4.092  0.2055  0.2203  0.2142
    1DIPC   D3B27551  30.424   1.972   3.896  0.0249  0.3453  0.4358
    1DIPC   C4B27552  30.079   1.694   3.960  0.1879  0.1590  0.0493
    1DIPC   NC327553  21.478  20.800   2.201  0.1361 -0.0938  0.1137
    1DIPC   PO427554  21.681  20.716   2.526 -0.0221 -0.0541 -0.0271
    1DIPC   GL127555  21.327  20.633   2.817 -0.0578  0.0951 -0.0509
    1DIPC   GL227556  21.339  20.899   3.006  0.2307 -0.0059  0.4488
    1DIPC   C1A27557  21.341  20.453   3.273 -0.1178  0.1284  0.3038
    1DIPC   D2A27558  21.414  20.262   3.661  0.0719 -0.4621 -0.1379
    1DIPC   D3A27559  21.382  20.013   3.992 -0.0071 -0.1741 -0.2186
    1DIPC   C4A27560  21.144  20.010   4.424 -0.0200  0.2157 -0.0081
    1DIPC   C1B27561  21.077  20.865   3.311 -0.1806 -0.0130 -0.2933
    1DIPC   D2B27562  20.998  20.696   3.672 -0.0173  0.1303 -0.1746
    1DIPC   D3B27563  21.145  21.208   3.841 -0.0639  0.0635  0.0368
    1DIPC   C4B27564  21.569  21.379   3.921  0.2270  0.0424 -0.1799
    1DIPC   NC327565  22.731  24.759   2.894 -0.0541  0.0393  0.1480
    1DIPC   PO427566  22.226  24.582   2.978 -0.2235  0.0081 -0.0851
    1DIPC   GL127567  22.220  24.451   3.403 -0.1146 -0.1689  0.0631
    1DIPC   GL227568  21.953  24.344   3.643  0.2245  0.1887 -0.0236
    1DIPC   C1A27569  22.390  24.211   3.764 -0.0681  0.1909  0.0640
    1DIPC   D2A27570  22.522  23.740   3.914  0.3047 -0.2330  0.3956
    1DIPC   D3A27571  22.733  23.474   4.271  0.0491 -0.2581  0.0952
    1DIPC   C4A27572  22.724  22.995   4.424  0.0794 -0.1131  0.1469
    1DIPC   C1B27573  21.978  23.861   3.697 -0.1602  0.1441  0.0567
    1DIPC   D2B27574  21.909  23.481   3.927 -0.1149 -0.0608  0.2060
    1DIPC   D3B27575  22.181  23.516   4.168 -0.2201 -0.0170 -0.1721
    1DIPC   C4B27576  22.269  23.275   4.504  0.1021  0.0753 -0.1809
    1DIPC   NC327577  18.238  30.062   2.832 -0.1973  0.2195 -0.0310
    1DIPC   PO427578  18.512  30.100   3.198  0.1182 -0.0361  0.1135
    1DIPC   GL127579  18.649  29.986   3.574 -0.0320  0.0596  0.0491
    1DIPC   GL227580  18.799  29.753   3.694 -0.1613  0.1911  0.1090
    1DIPC   C1A27581  18.620  30.022   4.032  0.1877 -0.2583 -0.1643
    1DIPC   D2A27582  18.666  30.072   4.396 -0.0005 -0.0780 -0.1221
    1DIPC   D3A27583  18.235  29.922   4.498 -0.0625  0.0065 -0.0598
    1DIPC   C4A27584  18.224  29.614   4.750  0.1627  0.1974 -0.2883
    1DIPC   C1B27585  18.376  29.552   3.872  0.1889 -0.1947  0.1976
    1DIPC   D2B27586  17.870  29.680   3.942  0.2065 -0.1614 -0.1056
    1DIPC   D3B27587  18.057  29.392   4.305  0.0015  0.1692  0.2364
    1DIPC   C4B27588  17.968  29.224   4.697  0.0003  0.0660 -0.2252
    1DIPC   NC327589   3.209  16.562   1.168  0.0711  0.0158  0.1729
    1DIPC   PO427590   3.315  16.627   1.487 -0.2660 -0.0343  0.1361
    1DIPC   GL127591   3.271  16.798   1.893  0.0295 -0.0177  0.0710
    1DIPC   GL227592   3.476  16.606   2.035  0.1946 -0.0027  0.1069
    1DIPC   C1A27593   3.188  16.951   2.270  0.1728 -0.0884 -0.1319
    1DIPC   D2A27594   2.887  16.956   2.528  0.0535  0.1351 -0.1523
    1DIPC   D3A27595   3.014  16.887   2.852  0.1425 -0.1459  0.5866
    1DIPC   C4A27596   2.645  16.804   3.096  0.0242 -0.0452 -0.0895
    1DIPC   C1B27597   3.835  16.658   2.402  0.0220 -0.1226  0.0452
    1DIPC   D2B27598   4.047  16.676   2.801  0.1299  0.2825 -0.0087
    1DIPC   D3B27599   3.906  16.725   3.184 -0.1184 -0.0680  0.3847
    1DIPC   C4B27600   3.560  16.887   3.415  0.3996  0.0782 -0.1696
    1DIPC   NC327601  13.032  26.747   3.063  0.0747  0.0512  0.0157
    1DIPC   PO427602  12.657  26.700   2.930 -0.0638  0.1251 -0.0979
    1DIPC   GL127603  12.564  26.440   3.307 -0.0236 -0.1392  0.1744
    1DIPC   GL227604  12.347  26.528   3.457  0.0636  0.2795 -0.1490
    1DIPC   C1A27605  12.657  26.099   3.575 -0.0028  0.0636  0.2739
    1DIPC   D2A27606  12.629  25.723   3.864 -0.0108  0.0240 -0.2346
    1DIPC   D3A27607  12.382  25.816   4.230 -0.1437 -0.1524  0.0343
    1DIPC   C4A27608  12.380  25.612   4.617  0.4122  0.0843 -0.3548
    1DIPC   C1B27609  12.249  26.788   3.867 -0.2818  0.2914  0.1273
    1DIPC   D2B27610  12.209  27.011   4.243  0.0832 -0.0816 -0.1357
    1DIPC   D3B27611  12.404  27.180   4.634  0.0081  0.0915 -0.0838
    1DIPC   C4B27612  12.114  27.374   4.909 -0.1543 -0.0959  0.0113
    1DIPC   NC327613  17.413  29.853   2.579 -0.0277 -0.0636  0.1660
    1DIPC   PO427614  17.239  29.834   3.052  0.1599  0.0093 -0.0122
    1DIPC   GL127615  17.057  29.662   3.484  0.3512  0.2238  0.1377
    1DIPC   GL227616  17.256  29.354   3.389 -0.1104  0.1138  0.1382
    1DIPC   C1A27617  16.743  29.600   3.676  0.1830  0.0155 -0.3317
    1DIPC   D2A27618  16.590  29.419   3.991 -0.1707  0.0184 -0.0285
    1DIPC   D3A27619  16.797  29.016   3.880 -0.1456 -0.2063 -0.1807
    1DIPC   C4A27620  16.543  28.714   3.690 -0.2247  0.0759 -0.2639
    1DIPC   C1B27621  17.190  29.315   3.876 -0.0708 -0.0975  0.1835
    1DIPC   D2B27622  17.016  29.333   4.301 -0.1901  0.0643 -0.3226
    1DIPC   D3B27623  17.077  29.179   4.729 -0.0910  0.0147 -0.0983
    1DIPC   C4B27624  17.460  29.034   4.884 -0.2165 -0.4555  0.0221
    1DIPC   NC327625  28.862   8.280   2.343  0.0430 -0.2463 -0.0785
    1DIPC   PO427626  29.186   8.564   2.305 -0.0769 -0.1282 -0.2597
    1DIPC   GL127627  29.266   8.362   2.750  0.2656  0.1918 -0.1719
    1DIPC   GL227628  29.443   8.091   2.832  0.5200 -0.2195  0.1634
    1DIPC   C1A27629  29.109   8.553   3.161  0.0593 -0.3573  0.0321
    1DIPC   D2A27630  29.368   8.809   3.399  0.2635  0.0458  0.0697
    1DIPC   D3A27631  29.493   8.405   3.703 -0.5771 -0.1904  0.0757
    1DIPC   C4A27632  29.316   8.249   4.009 -0.0978 -0.0998 -0.1166
    1DIPC   C1B27633  29.208   8.054   3.292  0.4767 -0.2144  0.0298
    1DIPC   D2B27634  29.129   7.952   3.664  0.2588 -0.0686  0.3070
    1DIPC   D3B27635  29.550   7.872   3.761  0.1364  0.1289  0.1545
    1DIPC   C4B27636  29.849   8.096   3.958 -0.2692 -0.0560  0.0438
    1DIPC   NC327637   9.780   3.674   2.934 -0.1624  0.6257 -0.2181
    1DIPC   PO427638   9.858   4.020   3.176  0.0748 -0.3010  0.3860
    1DIPC   GL127639  10.042   4.098   3.521 -0.0289  0.1445 -0.2308
    1DIPC   GL227640   9.977   3.918   3.862  0.3567 -0.1999 -0.1906
    1DIPC   C1A27641  10.228   4.370   3.853  0.0780  0.2516  0.0634
    1DIPC   D2A27642  10.600   4.782   3.805  0.0966  0.1242  0.0761
    1DIPC   D3A27643  10.713   5.200   3.974  0.2849  0.1560 -0.2170
    1DIPC   C4A27644  10.294   5.323   4.163 -0.2597 -0.3474 -0.0882
    1DIPC   C1B27645  10.302   3.862   4.183  0.0616 -0.1057 -0.0657
    1DIPC   D2B27646  10.752   3.746   4.488  0.1451 -0.0260 -0.0031
    1DIPC   D3B27647  10.604   4.040   4.746  0.1123  0.2065 -0.1219
    1DIPC   C4B27648  10.780   4.266   4.961 -0.0634  0.1915 -0.2413
    1DIPC   NC327649   8.049   7.800   3.405 -0.1973  0.2192 -0.0148
    1DIPC   PO427650   8.323   7.759   3.851  0.2157 -0.2061  0.0179
    1DIPC   GL127651   8.232   7.619   4.299 -0.0753 -0.1029  0.2486
    1DIPC   GL227652   8.350   7.877   4.443  0.1159  0.1008 -0.1091
    1DIPC   C1A27653   8.094   7.536   4.656 -0.3263 -0.2987 -0.0624
    1DIPC   D2A27654   7.857   7.673   4.985 -0.2341  0.0814  0.0843
    1DIPC   D3A27655   7.419   7.590   5.076  0.1878 -0.3124  0.4275
    1DIPC   C4A27656   7.214   7.471   5.440 -0.0460 -0.0256 -0.1248
    1DIPC   C1B27657   8.172   7.990   4.834  0.0373 -0.1064  0.2782
    1DIPC   D2B27658   8.130   7.836   5.333 -0.0260  0.2245  0.0908
    1DIPC   D3B27659   8.021   8.224   5.363  0.4215 -0.0709 -0.0591
    1DIPC   C4B27660   8.445   8.371   5.430  0.0723  0.1453 -0.0258
    1DIPC   NC327661   6.521   7.623   3.534 -0.2563 -0.1843 -0.0881
    1DIPC   PO427662   6.594   8.075   3.540 -0.0016 -0.0762 -0.2227
    1DIPC   GL127663   6.485   8.217   3.987 -0.0296  0.0467 -0.1015
    1DIPC   GL227664   6.485   8.532   4.087  0.0139  0.0312 -0.0631
    1DIPC   C1A27665   6.444   8.185   4.425 -0.1928  0.0748  0.2333
    1DIPC   D2A27666   6.078   8.197   4.737 -0.1596 -0.0421 -0.1311
    1DIPC   D3A27667   6.446   8.040   4.935  0.2483  0.1636  0.1541
    1DIPC   C4A27668   6.500   7.667   5.111 -0.1841  0.2873  0.0809
    1DIPC   C1B27669   6.193   8.690   4.330 -0.0943  0.0252  0.0366
    1DIPC   D2B27670   5.899   8.676   4.797  0.0470  0.0434 -0.1417
    1DIPC   D3B27671   6.292   8.662   4.968  0.1092  0.1764  0.0480
    1DIPC   C4B27672   6.375   9.027   5.152 -0.2986 -0.2357 -0.1163
    1DIPC   NC327673  17.197  22.881   2.682  0.1255 -0.0174 -0.0050
    1DIPC   PO427674  16.907  23.126   3.012  0.0745  0.0786 -0.1328
    1DIPC   GL127675  16.795  22.936   3.344  0.2109 -0.2850 -0.1008
    1DIPC   GL227676  16.519  22.814   3.144 -0.1182  0.0868  0.0716
    1DIPC   C1A27677  16.770  22.831   3.784 -0.2069 -0.2044 -0.1796
    1DIPC   D2A27678  16.882  22.739   4.217  0.0672  0.1163 -0.0799
    1DIPC   D3A27679  17.293  22.799   3.941  0.3599 -0.1526 -0.2665
    1DIPC   C4A27680  17.124  23.160   3.690 -0.0676 -0.2937 -0.1473
    1DIPC   C1B27681  16.307  22.730   3.567  0.1118  0.1170  0.1958
    1DIPC   D2B27682  16.177  22.658   3.997  0.0912  0.1297  0.1090
    1DIPC   D3B27683  16.135  22.495   4.518 -0.1976  0.0579 -0.0661
    1DIPC   C4B27684  15.746  22.307   4.646  0.1317 -0.0546 -0.0780
    1DIPC   NC327685  13.629  24.335   3.181  0.1691 -0.0168  0.0898
    1DIPC   PO427686  13.955  24.555   3.195 -0.0970  0.1878  0.0527
    1DIPC   GL127687  13.860  24.475   3.622  0.1888  0.1062 -0.4388
    1DIPC   GL227688  13.942  24.157   3.581  0.2784  0.0324 -0.0770
    1DIPC   C1A27689  13.920  24.638   4.035  0.1113  0.0228 -0.0798
    1DIPC   D2A27690  13.867  24.420   4.454  0.3319  0.0504  0.1626
    1DIPC   D3A27691  13.992  24.743   4.659  0.0207 -0.2235 -0.3230
    1DIPC   C4A27692  14.378  25.002   4.704  0.2960 -0.0407  0.1375
    1DIPC   C1B27693  13.962  24.029   3.971 -0.3499 -0.0718 -0.1044
    1DIPC   D2B27694  14.005  23.901   4.385 -0.0600  0.0693 -0.0953
    1DIPC   D3B27695  14.317  24.183   4.710 -0.3162 -0.3117  0.0942
    1DIPC   C4B27696  14.154  24.422   4.958 -0.0287  0.2219  0.0833
    1DIPC   NC327697  25.456  26.132   2.829 -0.0876  0.2605 -0.0545
    1DIPC   PO427698  25.337  26.525   2.606 -0.2612 -0.1981 -0.2668
    1DIPC   GL127699  25.477  26.866   3.043 -0.2528  0.5074 -0.0507
    1DIPC   GL227700  25.744  27.060   3.083  0.1595 -0.1349 -0.2109
    1DIPC   C1A27701  25.380  26.923   3.517  0.0104  0.1818  0.1497
    1DIPC   D2A27702  25.360  26.859   3.957  0.2047 -0.0943  0.2320
    1DIPC   D3A27703  25.160  27.213   4.128  0.1150 -0.3512 -0.2776
    1DIPC   C4A27704  25.288  27.213   4.594  0.0063  0.0879  0.2921
    1DIPC   C1B27705  25.941  27.083   3.354 -0.3767  0.0676  0.0718
    1DIPC   D2B27706  26.238  27.360   3.392  0.4044  0.0321  0.0795
    1DIPC   D3B27707  26.459  27.659   3.326 -0.3818 -0.1583  0.0950
    1DIPC   C4B27708  26.852  27.576   3.332 -0.1872  0.0245 -0.1468
    1DIPC   NC327709  24.895  20.582   2.367  0.1657  0.1233  0.1521
    1DIPC   PO427710  25.307  20.637   2.207 -0.2400  0.0990 -0.1830
    1DIPC   GL127711  25.175  20.610   2.752 -0.1475  0.1576 -0.0217
    1DIPC   GL227712  24.922  20.550   2.986  0.0285  0.0455  0.1496
    1DIPC   C1A27713  25.374  20.405   3.186 -0.0293  0.2644 -0.3112
    1DIPC   D2A27714  25.531  20.375   3.653  0.1241 -0.1360  0.3541
    1DIPC   D3A27715  25.344  20.181   3.962  0.0945  0.2609  0.2792
    1DIPC   C4A27716  24.924  20.296   3.996  0.0414 -0.4668  0.0314
    1DIPC   C1B27717  24.887  20.248   3.370  0.0617  0.3146  0.0232
    1DIPC   D2B27718  25.072  19.835   3.577  0.0123 -0.0331 -0.1258
    1DIPC   D3B27719  25.407  19.899   3.312  0.0028 -0.0985 -0.1944
    1DIPC   C4B27720  25.111  19.984   2.907 -0.0348 -0.1747  0.0809
    1DIPC   NC327721  10.869  24.083   2.092 -0.0047 -0.0257 -0.3410
    1DIPC   PO427722  11.269  24.014   2.391 -0.2133  0.1405  0.0171
    1DIPC   GL127723  11.200  24.053   2.948  0.4763  0.1206  0.1117
    1DIPC   GL227724  11.256  24.472   2.990  0.2215  0.2456 -0.1253
    1DIPC   C1A27725  11.100  24.034   3.333 -0.2457 -0.0127 -0.2085
    1DIPC   D2A27726  11.118  23.892   3.794  0.0177 -0.1367  0.1137
    1DIPC   D3A27727  11.257  24.415   3.812 -0.2564 -0.3068  0.1451
    1DIPC   C4A27728  11.277  24.787   3.914 -0.3388 -0.2076  0.2066
    1DIPC   C1B27729  11.084  24.626   3.379  0.1763  0.2994  0.3064
    1DIPC   D2B27730  10.825  24.353   3.561 -0.1520 -0.0782 -0.0857
    1DIPC   D3B27731  10.793  24.683   3.778  0.1255  0.0197  0.3870
    1DIPC   C4B27732  10.826  24.718   4.209 -0.0656  0.1514  0.0436
    1DIPC   NC327733  22.556  29.581   3.001  0.2852  0.1862 -0.0663
    1DIPC   PO427734  22.917  29.415   3.272 -0.1812  0.1891 -0.2417
    1DIPC   GL127735  23.153  29.581   3.702 -0.0350  0.0993 -0.1588
    1DIPC   GL227736  23.316  29.957   3.705  0.2590 -0.1345  0.4756
    1DIPC   C1A27737  23.119  29.696   4.077  0.4335 -0.2940 -0.0029
    1DIPC   D2A27738  23.069  29.793   4.479  0.0912 -0.0521  0.0491
    1DIPC   D3A27739  22.690  29.737   4.346  0.1429 -0.3627 -0.3264
    1DIPC   C4A27740  22.316  29.996   4.490 -0.1985 -0.1035 -0.1171
    1DIPC   C1B27741  22.999  30.183   3.936 -0.2272  0.0291 -0.0354
    1DIPC   D2B27742  22.774  30.616   4.031  0.1674 -0.1543 -0.3113
    1DIPC   D3B27743  23.266  30.600   3.904  0.2247  0.1189 -0.0013
    1DIPC   C4B27744  23.319  30.805   3.499 -0.2348 -0.1848 -0.4066
    1DIPC   NC327745  16.395   6.390   3.634  0.1556  0.1910  0.1603
    1DIPC   PO427746  16.747   6.732   3.455 -0.0400  0.0570 -0.1916
    1DIPC   GL127747  16.872   7.004   3.732  0.2252 -0.3130  0.1872
    1DIPC   GL227748  17.268   6.910   3.860 -0.0457 -0.0157 -0.1908
    1DIPC   C1A27749  16.757   7.175   4.133 -0.1618 -0.1009 -0.1609
    1DIPC   D2A27750  16.907   7.380   4.523  0.1006 -0.0850  0.1464
    1DIPC   D3A27751  17.107   7.064   4.744 -0.0661  0.3582 -0.1067
    1DIPC   C4A27752  17.254   7.191   5.091  0.2112 -0.1459  0.0659
    1DIPC   C1B27753  17.673   7.024   4.018  0.1281 -0.1237  0.0053
    1DIPC   D2B27754  17.789   6.936   4.360  0.1003 -0.0083  0.1408
    1DIPC   D3B27755  17.447   6.717   4.441 -0.0096 -0.0964 -0.0937
    1DIPC   C4B27756  17.022   6.761   4.328 -0.0137  0.1841 -0.2434
    1DIPC   NC327757   2.751  15.671   2.057 -0.4276 -0.1461 -0.3248
    1DIPC   PO427758   2.966  15.380   1.989 -0.0359  0.0856  0.2081
    1DIPC   GL127759   2.606  15.220   2.209  0.1405  0.0475  0.1452
    1DIPC   GL227760   2.385  15.359   2.425 -0.0801  0.0769  0.0756
    1DIPC   C1A27761   2.752  14.898   2.531  0.0293 -0.1816 -0.2702
    1DIPC   D2A27762   2.535  14.815   2.945 -0.0652 -0.1772 -0.1999
    1DIPC   D3A27763   2.615  15.309   3.054  0.2302  0.1204 -0.0382
    1DIPC   C4A27764   2.650  15.616   2.692 -0.0449  0.2587 -0.0310
    1DIPC   C1B27765   2.134  15.180   2.753  0.0954 -0.2431 -0.0702
    1DIPC   D2B27766   1.858  14.889   2.871  0.3247 -0.0760 -0.0911
    1DIPC   D3B27767   2.125  14.784   3.175  0.1922  0.1163 -0.0674
    1DIPC   C4B27768   2.295  14.446   3.376 -0.1213 -0.3409 -0.0221
    1DIPC   NC327769  26.759   5.920   2.498 -0.1780  0.4789 -0.1326
    1DIPC   PO427770  26.430   6.176   2.468 -0.0552 -0.1886 -0.2183
    1DIPC   GL127771  26.664   6.299   2.856 -0.0474  0.1488 -0.0400
    1DIPC   GL227772  26.524   6.572   2.996 -0.1131  0.2170  0.2392
    1DIPC   C1A27773  27.067   6.313   3.095 -0.1978 -0.3020  0.1773
    1DIPC   D2A27774  27.520   6.564   3.280 -0.0191  0.2851 -0.1620
    1DIPC   D3A27775  27.240   6.793   3.566 -0.1540  0.3206  0.0400
    1DIPC   C4A27776  27.037   6.491   3.635 -0.0147 -0.0669 -0.0451
    1DIPC   C1B27777  26.551   6.581   3.397  0.1053 -0.0048  0.1508
    1DIPC   D2B27778  26.494   6.432   3.828 -0.1254  0.0061  0.2940
    1DIPC   D3B27779  26.841   6.633   4.057  0.0332  0.2040  0.0131
    1DIPC   C4B27780  26.665   6.963   4.334  0.0178  0.0174 -0.0833
    1DIPC   NC327781  17.415  29.022   3.091 -0.0766 -0.0254  0.1268
    1DIPC   PO427782  16.989  28.993   3.070 -0.2530 -0.0041  0.0430
    1DIPC   GL127783  17.017  28.754   3.465 -0.2231 -0.1722  0.0186
    1DIPC   GL227784  17.045  28.418   3.392 -0.1872 -0.2143 -0.4534
    1DIPC   C1A27785  17.282  28.757   3.816 -0.1684 -0.0617 -0.0560
    1DIPC   D2A27786  17.380  28.565   4.214 -0.1084 -0.0403 -0.1899
    1DIPC   D3A27787  17.066  28.553   4.549 -0.0249  0.0480  0.1052
    1DIPC   C4A27788  16.780  28.900   4.516  0.0300 -0.0036 -0.0720
    1DIPC   C1B27789  16.861  28.317   3.780  0.1749 -0.1277  0.0909
    1DIPC   D2B27790  16.835  28.590   4.098  0.2159 -0.0257 -0.0416
    1DIPC   D3B27791  16.621  28.169   4.137 -0.0975 -0.0030  0.1822
    1DIPC   C4B27792  16.192  28.194   4.341 -0.1607 -0.2001 -0.0683
    1DIPC   NC327793   1.648  20.541   1.660  0.2054 -0.1629  0.1181
    1DIPC   PO427794   1.199  20.763   1.739 -0.1844 -0.1664  0.0023
    1DIPC   GL127795   1.360  20.771   2.088  0.0435 -0.0421  0.2071
    1DIPC   GL227796   1.718  20.837   2.192 -0.1976  0.0001 -0.3103
    1DIPC   C1A27797   1.219  20.868   2.506 -0.1142 -0.1350 -0.1593
    1DIPC   D2A27798   1.274  21.003   2.896  0.0902 -0.0212  0.1240
    1DIPC   D3A27799   1.659  21.022   2.802  0.0999 -0.1808 -0.4800
    1DIPC   C4A27800   2.016  20.790   2.917 -0.0311  0.1378 -0.1108
    1DIPC   C1B27801   1.960  21.023   2.392 -0.3697 -0.1061  0.1526
    1DIPC   D2B27802   2.374  21.155   2.696  0.0160  0.0440 -0.1645
    1DIPC   D3B27803   2.137  21.379   3.086 -0.0538 -0.2849 -0.3048
    1DIPC   C4B27804   2.007  21.762   2.996  0.0559  0.1994  0.0996
    1DIPC   NC327805   6.925  29.976   3.243  0.2896 -0.2106  0.1473
    1DIPC   PO427806   6.752  30.126   3.649  0.1083  0.0440 -0.2116
    1DIPC   GL127807   6.770  30.145   4.018  0.0755 -0.2783  0.0088
    1DIPC   GL227808   6.807  30.527   4.049 -0.3120  0.3767 -0.1871
    1DIPC   C1A27809   7.016  29.992   4.396 -0.4860  0.1041  0.0942
    1DIPC   D2A27810   6.995  29.776   4.679 -0.4249 -0.1248 -0.1905
    1DIPC   D3A27811   6.824  29.548   4.965  0.2067  0.0750  0.0661
    1DIPC   C4A27812   6.894  29.695   5.455 -0.1137 -0.1124  0.5520
    1DIPC   C1B27813   7.069  30.532   4.415  0.3898 -0.0213  0.2103
    1DIPC   D2B27814   7.375  30.373   4.785  0.3606 -0.1439  0.1246
    1DIPC   D3B27815   7.300  30.486   5.146 -0.4527  0.1448  0.1974
    1DIPC   C4B27816   7.581  30.912   5.163  0.5505  0.3292 -0.1166
    1DIPC   NC327817  19.185   6.748   2.983  0.0038  0.2371 -0.1778
    1DIPC   PO427818  19.690   6.816   2.991  0.1210  0.2709  0.1655
    1DIPC   GL127819  19.473   6.938   3.394 -0.0997 -0.2402  0.1384
    1DIPC   GL227820  19.211   7.151   3.537 -0.2644 -0.0245  0.1559
    1DIPC   C1A27821  19.728   6.952   3.785  0.1897 -0.1109 -0.3892
    1DIPC   D2A27822  19.832   6.839   4.177  0.1088 -0.0745 -0.0626
    1DIPC   D3A27823  19.533   6.903   4.427 -0.1046 -0.0434 -0.0304
    1DIPC   C4A27824  19.499   7.025   4.836 -0.1451 -0.1895  0.2852
    1DIPC   C1B27825  18.928   7.122   3.867  0.1250 -0.0326  0.2032
    1DIPC   D2B27826  18.712   7.312   4.212  0.0321  0.0353  0.1622
    1DIPC   D3B27827  19.065   7.208   4.385 -0.0167  0.1090  0.2381
    1DIPC   C4B27828  19.061   6.938   4.733  0.0941 -0.0021 -0.0176
    1DIPC   NC327829   3.574  13.307   2.730  0.0592  0.1072  0.1594
    1DIPC   PO427830   3.780  13.482   2.284  0.0254 -0.2329  0.0401
    1DIPC   GL127831   3.771  13.758   2.792  0.2060 -0.0047 -0.5175
    1DIPC   GL227832   3.975  13.708   2.913  0.2873 -0.0189  0.2608
    1DIPC   C1A27833   3.545  14.134   2.981 -0.0525 -0.0337  0.0981
    1DIPC   D2A27834   3.428  14.412   3.229  0.0278  0.1290 -0.1303
    1DIPC   D3A27835   3.511  14.235   3.642  0.2329  0.0000  0.2778
    1DIPC   C4A27836   3.580  13.870   3.804 -0.2364 -0.0318 -0.1034
    1DIPC   C1B27837   3.636  13.654   3.278 -0.1534 -0.1856 -0.0621
    1DIPC   D2B27838   3.305  13.909   3.383  0.0771 -0.3253 -0.1044
    1DIPC   D3B27839   3.144  13.696   3.743  0.1055 -0.1395  0.3191
    1DIPC   C4B27840   3.257  13.639   4.123  0.2566 -0.0089 -0.2361
    1DIPC   NC327841  25.851  16.450   1.703  0.1856  0.1796  0.3651
    1DIPC   PO427842  25.661  16.375   2.074  0.1526 -0.2027 -0.0989
    1DIPC   GL127843  25.607  16.314   2.452  0.1607 -0.1029 -0.0050
    1DIPC   GL227844  25.385  16.140   2.505  0.0949  0.2047  0.0071
    1DIPC   C1A27845  25.423  16.478   2.839 -0.3600  0.1828  0.0201
    1DIPC   D2A27846  25.121  16.097   3.032 -0.0194 -0.4379 -0.1720
    1DIPC   D3A27847  25.110  16.379   3.321 -0.0988  0.0137 -0.2137
    1DIPC   C4A27848  25.526  16.487   3.335 -0.2126 -0.0417 -0.1708
    1DIPC   C1B27849  25.631  16.013   2.908 -0.3169  0.0952 -0.0692
    1DIPC   D2B27850  25.733  15.630   3.126 -0.0704 -0.0908 -0.1224
    1DIPC   D3B27851  25.352  15.720   3.418 -0.1646 -0.1905 -0.1309
    1DIPC   C4B27852  25.012  15.900   3.459  0.0819  0.1295  0.0223
    1DIPC   NC327853   6.298   0.019   3.869 -0.1803  0.1766  0.2571
    1DIPC   PO427854   6.025   0.262   3.895 -0.1382 -0.3492  0.0092
    1DIPC   GL127855   6.334   0.334   4.236  0.3175 -0.0674  0.1084
    1DIPC   GL227856   6.346  -0.027   4.377 -0.0891  0.2396  0.0814
    1DIPC   C1A27857   6.610   0.330   4.544  0.2420  0.2368 -0.0526
    1DIPC   D2A27858   6.863   0.082   4.784  0.2412 -0.1308 -0.2326
    1DIPC   D3A27859   7.047  -0.160   5.105 -0.0428  0.3529  0.1219
    1DIPC   C4A27860   7.427  -0.148   5.246  0.1774 -0.0662 -0.2215
    1DIPC   C1B27861   6.361  -0.013   4.819  0.2545  0.0766  0.0413
    1DIPC   D2B27862   6.374   0.339   5.053 -0.1518  0.2653  0.2501
    1DIPC   D3B27863   6.826   0.329   5.202  0.0669 -0.1220 -0.0007
    1DIPC   C4B27864   7.075   0.656   4.927 -0.0824 -0.0878 -0.0663
    1DIPC   NC327865  23.173  26.793   3.106  0.2386  0.0114  0.1070
    1DIPC   PO427866  22.960  26.396   3.274 -0.3435 -0.0268  0.1272
    1DIPC   GL127867  23.237  26.081   3.547  0.1376 -0.2718 -0.3772
    1DIPC   GL227868  23.587  26.187   3.694  0.1596  0.0591  0.0086
    1DIPC   C1A27869  23.489  25.757   3.883  0.0234  0.1863  0.3104
    1DIPC   D2A27870  23.518  25.666   4.290  0.1265  0.0512  0.2006
    1DIPC   D3A27871  23.246  25.329   4.621  0.0467 -0.0394 -0.1180
    1DIPC   C4A27872  23.484  24.974   4.829  0.3792  0.0328  0.1153
    1DIPC   C1B27873  23.792  26.067   4.050  0.0224 -0.1734  0.1745
    1DIPC   D2B27874  23.927  25.948   4.489 -0.0072 -0.1902 -0.2590
    1DIPC   D3B27875  24.189  25.930   4.930  0.1865 -0.1622 -0.0729
    1DIPC   C4B27876  24.323  26.341   4.970  0.2716 -0.4267 -0.0575
    1DIPC   NC327877  14.963  27.451   2.642  0.0479  0.2445  0.0963
    1DIPC   PO427878  15.405  27.466   2.674 -0.3013  0.1124  0.1068
    1DIPC   GL127879  15.425  27.281   3.140  0.4232 -0.1444  0.0887
    1DIPC   GL227880  15.792  27.242   3.289  0.2077 -0.0260  0.1248
    1DIPC   C1A27881  15.255  27.348   3.563  0.2091  0.0836 -0.1672
    1DIPC   D2A27882  15.078  27.611   3.862 -0.1823 -0.0956  0.0001
    1DIPC   D3A27883  15.306  27.720   4.337 -0.1134 -0.0104  0.2004
    1DIPC   C4A27884  15.771  27.969   4.376 -0.0884  0.1618  0.1318
    1DIPC   C1B27885  15.563  27.702   3.349 -0.2569 -0.0254  0.4382
    1DIPC   D2B27886  15.380  28.000   3.484 -0.1089 -0.0210 -0.0416
    1DIPC   D3B27887  15.859  28.169   3.655 -0.0136  0.2265  0.2375
    1DIPC   C4B27888  16.188  28.390   3.481 -0.1938  0.1778  0.2389
    1DIPC   NC327889   8.258  22.759   2.053 -0.1904 -0.0484 -0.1288
    1DIPC   PO427890   8.635  22.798   2.124  0.1126 -0.1028  0.2171
    1DIPC   GL127891   8.543  22.641   2.525 -0.0617  0.0886  0.1914
    1DIPC   GL227892   8.650  22.310   2.491  0.0593  0.0748 -0.0269
    1DIPC   C1A27893   8.250  22.471   2.769  0.0963  0.1270 -0.0583
    1DIPC   D2A27894   8.062  22.644   3.174  0.0330 -0.0455 -0.2214
    1DIPC   D3A27895   8.317  22.501   3.441 -0.0310  0.0591 -0.0099
    1DIPC   C4A27896   8.614  22.801   3.376  0.0973  0.0060  0.2211
    1DIPC   C1B27897   8.483  22.021   2.784  0.0307  0.1028 -0.3734
    1DIPC   D2B27898   8.280  22.055   3.189 -0.2680 -0.1484  0.2175
    1DIPC   D3B27899   7.885  21.913   3.357  0.1072 -0.0978  0.0858
    1DIPC   C4B27900   7.534  21.780   3.167 -0.0871 -0.2003  0.1471
    1DIPC   NC327901  23.554  28.736   3.245  0.0941  0.1046 -0.2582
    1DIPC   PO427902  23.859  29.037   3.395 -0.0648  0.4799  0.3627
    1DIPC   GL127903  23.777  29.130   3.793 -0.2492 -0.0659  0.0076
    1DIPC   GL227904  23.481  29.344   4.026 -0.1448  0.1592 -0.1153
    1DIPC   C1A27905  24.049  29.435   4.106  0.0771  0.3596 -0.4172
    1DIPC   D2A27906  24.220  29.560   4.491 -0.2490 -0.1319  0.0001
    1DIPC   D3A27907  24.184  29.423   4.858  0.1728  0.1155 -0.1037
    1DIPC   C4A27908  24.437  29.099   5.007 -0.3057 -0.1377 -0.0190
    1DIPC   C1B27909  23.173  28.971   3.998  0.2925  0.2798 -0.1240
    1DIPC   D2B27910  23.063  28.720   4.289  0.3195  0.1087 -0.2482
    1DIPC   D3B27911  22.933  28.954   4.753  0.1272 -0.2039  0.2419
    1DIPC   C4B27912  22.793  29.291   4.857  0.1078  0.0722  0.0656
    1DIPC   NC327913  17.544   1.376   3.888 -0.2111 -0.3934 -0.0328
    1DIPC   PO427914  17.889   1.664   3.988  0.1012  0.0156 -0.2293
    1DIPC   GL127915  17.904   1.890   4.378 -0.1961  0.1630 -0.1462
    1DIPC   GL227916  18.004   2.177   4.327  0.3803 -0.0570 -0.1484
    1DIPC   C1A27917  17.758   2.093   4.722 -0.2976  0.0408 -0.0848
    1DIPC   D2A27918  17.482   2.398   4.910 -0.0685 -0.0099  0.2044
    1DIPC   D3A27919  17.314   2.746   4.653 -0.4488  0.0423 -0.2810
    1DIPC   C4A27920  17.272   3.209   4.642 -0.1155  0.2204 -0.0301
    1DIPC   C1B27921  18.122   2.412   4.574  0.0393  0.1007  0.0913
    1DIPC   D2B27922  18.270   2.687   4.827  0.1009  0.0579  0.1053
    1DIPC   D3B27923  18.608   2.780   5.128  0.3651  0.0889  0.0274
    1DIPC   C4B27924  18.976   2.958   4.922 -0.2621 -0.0118  0.0706
    1DIPC   NC327925   4.236   6.867   2.895  0.1423  0.1838 -0.0174
    1DIPC   PO427926   4.494   7.068   3.193  0.0500 -0.1751 -0.3146
    1DIPC   GL127927   4.457   7.285   3.568 -0.1514  0.1144 -0.2519
    1DIPC   GL227928   4.119   7.500   3.658 -0.2542 -0.1339  0.0270
    1DIPC   C1A27929   4.639   7.622   3.857  0.3482 -0.1032 -0.3890
    1DIPC   D2A27930   4.872   7.961   4.143  0.0440  0.1153 -0.0232
    1DIPC   D3A27931   4.436   8.105   4.127  0.2687  0.0453  0.0146
    1DIPC   C4A27932   4.233   8.233   4.447  0.3480 -0.0438  0.0899
    1DIPC   C1B27933   4.112   7.721   4.096  0.0075 -0.0062  0.1455
    1DIPC   D2B27934   4.452   7.750   4.496  0.1713  0.3104  0.1718
    1DIPC   D3B27935   4.205   7.487   4.895 -0.2140 -0.1186  0.3664
    1DIPC   C4B27936   4.501   7.408   5.168 -0.1493 -0.2814 -0.2332
    1DIPC   NC327937  16.004   4.971   3.420 -0.0002  0.0542 -0.2422
    1DIPC   PO427938  16.350   4.982   3.266  0.0129  0.2164  0.2550
    1DIPC   GL127939  16.631   4.877   3.568  0.3656 -0.1895 -0.2192
    1DIPC   GL227940  17.050   4.930   3.418  0.1867 -0.0910  0.1312
    1DIPC   C1A27941  16.616   4.649   4.017  0.0603 -0.0791 -0.1049
    1DIPC   D2A27942  16.856   4.400   4.238  0.1612  0.2054  0.1285
    1DIPC   D3A27943  16.662   4.311   4.584 -0.1341 -0.1214  0.0504
    1DIPC   C4A27944  16.873   4.560   4.871 -0.0069  0.1353 -0.0697
    1DIPC   C1B27945  17.087   4.920   3.917 -0.5012 -0.2358  0.1611
    1DIPC   D2B27946  17.093   4.833   4.413  0.0936 -0.0230  0.1911
    1DIPC   D3B27947  16.582   5.001   4.483 -0.2589  0.0213  0.0077
    1DIPC   C4B27948  16.322   5.205   4.830  0.3821 -0.0953 -0.3494
    1DIPC   NC327949  20.593  25.640   2.998 -0.0322  0.0222  0.0603
    1DIPC   PO427950  20.234  25.402   2.888 -0.0402 -0.4134  0.1933
    1DIPC   GL127951  20.263  25.079   3.157 -0.0856 -0.1472 -0.0246
    1DIPC   GL227952  20.099  25.142   3.408  0.0886 -0.0784  0.0956
    1DIPC   C1A27953  20.354  24.811   3.555 -0.1780  0.2655  0.1502
    1DIPC   D2A27954  20.283  24.394   3.901 -0.0205  0.0751 -0.1130
    1DIPC   D3A27955  20.560  24.253   4.256  0.1375 -0.1902  0.2727
    1DIPC   C4A27956  20.845  24.378   4.557  0.3250 -0.0676 -0.0921
    1DIPC   C1B27957  19.980  25.216   3.761 -0.0561 -0.0519  0.1024
    1DIPC   D2B27958  20.324  25.201   4.100  0.0583 -0.0942 -0.2410
    1DIPC   D3B27959  20.450  24.767   4.331  0.1504  0.1290  0.3106
    1DIPC   C4B27960  20.582  24.840   4.773  0.1653 -0.3597 -0.0584
    1DIPC   NC327961   0.744  17.562   0.726  0.0227 -0.0335  0.1478
    1DIPC   PO427962   0.570  17.862   1.064  0.1519 -0.1320  0.0178
    1DIPC   GL127963   0.797  17.916   1.539  0.1101  0.0732  0.2330
    1DIPC   GL227964   0.903  17.663   1.674  0.0466 -0.1280 -0.0338
    1DIPC   C1A27965   0.922  18.233   1.780  0.2025  0.2602 -0.0493
    1DIPC   D2A27966   0.713  18.596   2.055 -0.0143  0.1571 -0.0585
    1DIPC   D3A27967   0.562  19.008   2.322 -0.0631  0.0174  0.1375
    1DIPC   C4A27968   0.346  19.285   2.606 -0.0812  0.1181 -0.2632
    1DIPC   C1B27969   0.760  17.783   2.108 -0.1412  0.1790  0.3151
    1DIPC   D2B27970   0.748  18.138   2.524  0.0930  0.1765  0.0034
    1DIPC   D3B27971   1.087  18.301   2.243 -0.0129 -0.2417 -0.1326
    1DIPC   C4B27972   1.469  18.487   2.386 -0.1964  0.2801  0.1075
    1DIPC   NC327973   0.621   0.753   2.942  0.3809  0.0708  0.1276
    1DIPC   PO427974   0.532   0.947   3.291 -0.1719  0.0448 -0.1129
    1DIPC   GL127975   0.531   0.953   3.797 -0.1529 -0.0602  0.1450
    1DIPC   GL227976   0.811   0.926   3.913  0.2799  0.3016 -0.0561
    1DIPC   C1A27977   0.176   1.225   3.989  0.1395  0.1596  0.1176
    1DIPC   D2A27978  -0.230   1.164   4.311  0.3201  0.0420 -0.0152
    1DIPC   D3A27979   0.079   1.182   4.515 -0.0513  0.2035 -0.3590
    1DIPC   C4A27980   0.026   1.105   4.999  0.2621 -0.0558  0.0941
    1DIPC   C1B27981   0.610   0.897   4.371 -0.0062 -0.4047 -0.0722
    1DIPC   D2B27982   0.808   0.800   4.814 -0.1309  0.0455  0.0164
    1DIPC   D3B27983   1.064   1.098   5.018  0.1126 -0.0475  0.1558
    1DIPC   C4B27984   1.307   1.473   4.852  0.2450 -0.0032  0.1798
    1DIPC   NC327985  23.137   9.825   2.086 -0.1313 -0.1871 -0.2543
    1DIPC   PO427986  23.438   9.901   2.277 -0.2698  0.0450 -0.0637
    1DIPC   GL127987  23.278   9.834   2.684  0.0044 -0.0273  0.1428
    1DIPC   GL227988  22.977   9.913   2.677  0.0866  0.4266 -0.3494
    1DIPC   C1A27989  23.411   9.938   3.085 -0.2323 -0.0432 -0.1418
    1DIPC   D2A27990  23.355   9.796   3.540  0.0365  0.3062  0.0449
    1DIPC   D3A27991  23.631  10.016   3.724 -0.1497  0.3642 -0.3168
    1DIPC   C4A27992  23.680  10.423   3.733  0.1730  0.2644 -0.1472
    1DIPC   C1B27993  22.973  10.152   3.013 -0.1505 -0.0386 -0.0561
    1DIPC   D2B27994  22.704  10.576   3.189  0.5186  0.1731  0.2569
    1DIPC   D3B27995  22.712  10.416   3.510  0.1857 -0.1340 -0.1213
    1DIPC   C4B27996  22.376  10.117   3.631  0.3235  0.1426  0.5720
    1DIPC   NC327997   1.418   1.125   2.718 -0.1425  0.0970 -0.3346
    1DIPC   PO427998   1.544   1.169   3.217 -0.2589  0.1989  0.2307
    1DIPC   GL127999   1.596   1.080   3.637  0.0378 -0.1594  0.4912
    1DIPC   GL228000   1.537   1.423   3.623  0.0727  0.2549 -0.0322
    1DIPC   C1A28001   1.574   1.095   4.041  0.3436  0.3115 -0.0837
    1DIPC   D2A28002   1.598   0.811   4.366 -0.0394  0.2063 -0.1156
    1DIPC   D3A28003   2.017   0.628   4.305 -0.0262  0.0450  0.0017
    1DIPC   C4A28004   2.397   0.758   4.541 -0.2505 -0.0862  0.1780
    1DIPC   C1B28005   1.959   1.494   3.813  0.2105  0.2161 -0.2487
    1DIPC   D2B28006   1.850   1.869   4.163 -0.1505 -0.1671  0.4747
    1DIPC   D3B28007   1.989   1.909   4.520 -0.0404 -0.1070 -0.1975
    1DIPC   C4B28008   2.127   1.530   4.691  0.3454  0.0329 -0.2640
    1DIPC   NC328009  25.468  10.372   2.170  0.0596  0.0218 -0.0609
    1DIPC   PO428010  25.893  10.614   2.230 -0.2346  0.2083  0.1127
    1DIPC   GL128011  26.005  10.839   2.660 -0.0751 -0.2107  0.0205
    1DIPC   GL228012  25.790  11.143   2.693 -0.2210 -0.0390 -0.3675
    1DIPC   C1A28013  26.216  10.984   3.015  0.0925  0.3588  0.3761
    1DIPC   D2A28014  26.482  11.153   3.357  0.0068 -0.0113  0.1479
    1DIPC   D3A28015  26.171  11.439   3.182 -0.0953  0.1520  0.2281
    1DIPC   C4A28016  25.793  11.310   3.177  0.2335  0.0508  0.2039
    1DIPC   C1B28017  25.261  11.125   2.828 -0.0088  0.2916 -0.0325
    1DIPC   D2B28018  25.049  11.064   3.280 -0.2146  0.1318  0.0191
    1DIPC   D3B28019  24.764  11.400   3.450  0.2866  0.0041  0.1742
    1DIPC   C4B28020  24.614  11.212   3.855  0.1731  0.2943 -0.2768
    1DIPC   NC328021   4.689  29.180   3.521 -0.0708  0.1555  0.3936
    1DIPC   PO428022   4.732  29.477   3.866 -0.3510  0.3795  0.0692
    1DIPC   GL128023   4.414  29.481   4.216 -0.1626  0.2225  0.0577
    1DIPC   GL228024   4.645  29.637   4.513  0.0674  0.0103 -0.1742
    1DIPC   C1A28025   4.116  29.196   4.508 -0.0555 -0.0948  0.0222
    1DIPC   D2A28026   4.121  28.919   4.764 -0.0942 -0.1405  0.1946
    1DIPC   D3A28027   4.316  28.797   5.173  0.2577 -0.0790 -0.2799
    1DIPC   C4A28028   4.374  28.322   5.240  0.1130  0.3444 -0.0174
    1DIPC   C1B28029   4.699  29.572   4.857  0.0280  0.1906 -0.3979
    1DIPC   D2B28030   4.743  29.635   5.191 -0.2843  0.1369  0.0980
    1DIPC   D3B28031   4.949  29.402   5.452 -0.0137  0.2920 -0.1624
    1DIPC   C4B28032   4.577  29.194   5.517 -0.1471 -0.0904 -0.2538
    1DIPC   NC328033   3.640  11.390   2.843 -0.2495  0.0600 -0.0182
    1DIPC   PO428034   3.470  11.072   2.774 -0.0172 -0.1724  0.1472
    1DIPC   GL128035   3.272  11.235   3.151 -0.0528  0.1715  0.6503
    1DIPC   GL228036   3.443  11.456   3.352  0.0411  0.1779  0.3264
    1DIPC   C1A28037   3.246  11.142   3.671  0.2404  0.0279  0.1099
    1DIPC   D2A28038   3.148  11.125   4.124 -0.1789  0.1490  0.0391
    1DIPC   D3A28039   3.478  11.388   4.297 -0.2316  0.2461 -0.3138
    1DIPC   C4A28040   3.848  11.546   4.333  0.2787 -0.1197 -0.2158
    1DIPC   C1B28041   3.510  11.544   3.814  0.2368  0.2229  0.1138
    1DIPC   D2B28042   3.480  11.900   4.123  0.1037  0.2919 -0.2329
    1DIPC   D3B28043   3.147  11.730   4.336 -0.3122  0.0184 -0.0506
    1DIPC   C4B28044   2.812  11.770   4.511  0.0825 -0.1016 -0.0512
    1DIPC   NC328045  19.622   5.876   3.497  0.0668 -0.2000  0.1683
    1DIPC   PO428046  19.648   5.427   3.756  0.0078  0.4807 -0.0840
    1DIPC   GL128047  19.682   5.271   4.173 -0.1744  0.0337  0.3553
    1DIPC   GL228048  19.603   5.017   4.367  0.2121  0.2459  0.1606
    1DIPC   C1A28049  19.520   5.502   4.508  0.1248 -0.4618 -0.0992
    1DIPC   D2A28050  19.533   5.604   4.872  0.0876 -0.1818  0.1488
    1DIPC   D3A28051  19.482   5.146   5.125  0.2041  0.3702  0.0679
    1DIPC   C4A28052  19.114   5.010   5.242 -0.1454 -0.1554  0.1706
    1DIPC   C1B28053  19.815   5.162   4.714 -0.0798 -0.0435 -0.1755
    1DIPC   D2B28054  19.983   5.337   5.119 -0.1410  0.0326  0.1232
    1DIPC   D3B28055  20.420   5.288   5.068 -0.0474  0.0743  0.0063
    1DIPC   C4B28056  20.677   5.317   4.692  0.2557 -0.0770 -0.2214
    1DIPC   NC328057   2.289  16.616   1.176  0.0217  0.0079  0.1893
    1DIPC   PO428058   2.426  16.789   1.583  0.2020 -0.1022  0.1536
    1DIPC   GL128059   2.390  16.501   1.961 -0.0662  0.2915 -0.1224
    1DIPC   GL228060   2.095  16.422   1.978  0.0813  0.0629 -0.1889
    1DIPC   C1A28061   2.336  16.434   2.445 -0.1409 -0.1162 -0.2280
    1DIPC   D2A28062   2.270  16.500   2.909 -0.0191  0.3519 -0.0689
    1DIPC   D3A28063   1.810  16.626   3.133 -0.2140  0.1575 -0.1921
    1DIPC   C4A28064   1.453  16.566   2.903 -0.0234 -0.2242  0.4369
    1DIPC   C1B28065   1.831  16.501   2.363  0.0860 -0.2291 -0.0929
    1DIPC   D2B28066   1.843  16.815   2.594  0.4399 -0.1394  0.0895
    1DIPC   D3B28067   1.498  17.022   2.610  0.2070  0.0206  0.0779
    1DIPC   C4B28068   1.326  17.023   3.003 -0.1801 -0.0324 -0.1606
    1DIPC   NC328069  21.759  24.427   3.229  0.0616  0.0934  0.0063
    1DIPC   PO428070  21.447  24.079   3.357 -0.0302 -0.1005 -0.2058
    1DIPC   GL128071  21.587  24.117   3.813 -0.1781  0.0643  0.1290
    1DIPC   GL228072  21.439  24.428   3.901  0.0086  0.3130 -0.4217
    1DIPC   C1A28073  21.961  24.120   4.124 -0.0743  0.2595  0.0431
    1DIPC   D2A28074  22.153  24.293   4.503  0.3055  0.1189  0.2665
    1DIPC   D3A28075  22.152  23.814   4.635  0.0130 -0.1365  0.2125
    1DIPC   C4A28076  22.500  23.596   4.793  0.3582 -0.1890 -0.0065
    1DIPC   C1B28077  21.720  24.543   4.298  0.1542 -0.1318 -0.2297
    1DIPC   D2B28078  21.762  24.436   4.719  0.3796 -0.3717 -0.1678
    1DIPC   D3B28079  21.979  24.848   4.749  0.1185  0.2796  0.0940
    1DIPC   C4B28080  22.244  24.759   4.451  0.1000  0.2187  0.0810
    1DIPC   NC328081   8.841  23.217   2.380  0.2184 -0.3527  0.2033
    1DIPC   PO428082   8.631  23.587   2.207 -0.1082  0.2198  0.1292
    1DIPC   GL128083   8.494  23.516   2.658  0.0473 -0.2954 -0.2741
    1DIPC   GL228084   8.656  23.763   2.867  0.0785 -0.1401  0.1766
    1DIPC   C1A28085   8.153  23.379   2.790  0.2283  0.5128 -0.0407
    1DIPC   D2A28086   7.792  23.161   3.054 -0.0675  0.0520  0.2305
    1DIPC   D3A28087   7.730  22.926   3.459 -0.1418  0.0170 -0.0077
    1DIPC   C4A28088   7.653  23.289   3.775  0.1066  0.1143  0.0852
    1DIPC   C1B28089   8.468  23.514   3.120  0.2715 -0.3561  0.0969
    1DIPC   D2B28090   8.233  23.141   3.347 -0.2284 -0.0725  0.3968
    1DIPC   D3B28091   8.437  22.936   2.954  0.1161  0.0739  0.0747
    1DIPC   C4B28092   8.850  22.796   2.939 -0.1262 -0.1277  0.0677
    1DIPC   NC328093   5.761   6.116   2.912  0.0524 -0.1891 -0.0012
    1DIPC   PO428094   5.564   6.447   3.070 -0.1425  0.1117  0.0379
    1DIPC   GL128095   5.719   6.246   3.525 -0.0995  0.0761  0.2081
    1DIPC   GL228096   5.615   6.398   3.818 -0.0335  0.1096 -0.1746
    1DIPC   C1A28097   5.781   5.924   3.831  0.1958  0.2355  0.4119
    1DIPC   D2A28098   5.721   5.792   4.204 -0.0265  0.2647 -0.4050
    1DIPC   D3A28099   6.036   5.810   4.502  0.0767  0.0077 -0.0520
    1DIPC   C4A28100   5.996   5.921   4.906 -0.0198  0.1352  0.6062
    1DIPC   C1B28101   5.302   6.059   3.775 -0.2797  0.0566 -0.1564
    1DIPC   D2B28102   4.887   5.954   4.017 -0.0036  0.0424 -0.2553
    1DIPC   D3B28103   5.131   5.604   4.286  0.1034 -0.2038  0.0255
    1DIPC   C4B28104   4.911   5.712   4.634 -0.1381  0.0775 -0.0579
    1DIPC   NC328105  28.189  16.650   1.781 -0.2702 -0.1001 -0.1902
    1DIPC   PO428106  28.486  17.044   1.674  0.0971 -0.0230  0.1641
    1DIPC   GL128107  28.443  17.022   2.055  0.0734 -0.1906 -0.0951
    1DIPC   GL228108  28.584  17.176   2.268  0.0834  0.0381 -0.0937
    1DIPC   C1A28109  28.112  17.172   2.251  0.2825 -0.0604 -0.2237
    1DIPC   D2A28110  27.848  17.329   2.642 -0.0651 -0.3489  0.1887
    1DIPC   D3A28111  27.760  17.209   3.075 -0.3119 -0.3750 -0.0796
    1DIPC   C4A28112  28.193  17.118   3.244  0.2472 -0.0591  0.1922
    1DIPC   C1B28113  28.551  16.828   2.612 -0.2614  0.1302  0.2895
    1DIPC   D2B28114  28.443  16.609   2.960  0.0862 -0.1169 -0.0969
    1DIPC   D3B28115  28.383  16.220   2.882 -0.0113  0.0897 -0.0650
    1DIPC   C4B28116  28.064  16.010   3.061 -0.0860  0.2188  0.0262
    1DIPC   NC328117  21.745   3.218   3.349  0.0481 -0.0832 -0.0140
    1DIPC   PO428118  21.323   3.402   3.276  0.2334  0.2409 -0.3238
    1DIPC   GL128119  21.469   3.366   3.752  0.1316 -0.0273 -0.1816
    1DIPC   GL228120  21.220   3.384   4.062 -0.2022  0.0630 -0.0129
    1DIPC   C1A28121  21.790   3.336   4.134 -0.2865 -0.1771  0.1899
    1DIPC   D2A28122  21.944   3.603   4.444  0.2917  0.3446 -0.1747
    1DIPC   D3A28123  22.249   3.902   4.354 -0.1503  0.2364 -0.0000
    1DIPC   C4A28124  22.197   4.345   4.531  0.0658  0.3903 -0.0691
    1DIPC   C1B28125  21.412   3.562   4.345 -0.1669  0.1144 -0.0313
    1DIPC   D2B28126  21.316   3.698   4.649  0.0033  0.0032 -0.0510
    1DIPC   D3B28127  21.662   3.389   4.780  0.1436  0.1308 -0.4824
    1DIPC   C4B28128  22.057   3.458   4.947  0.1539  0.1313  0.0948
    1DIPC   NC328129  18.374   2.949   3.416 -0.2472 -0.1424  0.0126
    1DIPC   PO428130  18.698   3.112   3.155 -0.3365 -0.0833 -0.1792
    1DIPC   GL128131  18.994   3.047   3.547  0.0137 -0.1548 -0.0366
    1DIPC   GL228132  18.887   2.761   3.635  0.1797 -0.2029 -0.1605
    1DIPC   C1A28133  19.310   3.095   3.935 -0.0544  0.1114 -0.2101
    1DIPC   D2A28134  19.560   2.983   4.324 -0.1498 -0.0880 -0.1174
    1DIPC   D3A28135  19.846   3.189   4.006  0.0364 -0.2537 -0.1389
    1DIPC   C4A28136  20.145   3.483   4.185 -0.2083 -0.2051  0.5072
    1DIPC   C1B28137  19.274   2.561   3.854 -0.1541 -0.2331  0.0833
    1DIPC   D2B28138  19.527   2.490   4.081  0.1475  0.2306  0.1046
    1DIPC   D3B28139  19.413   2.290   4.486  0.2050 -0.1146 -0.1966
    1DIPC   C4B28140  19.326   2.600   4.804 -0.0430  0.0136 -0.0743
    1DIPC   NC328141  30.099  20.503   2.173 -0.1939  0.2374 -0.3325
    1DIPC   PO428142  30.445  20.891   2.076 -0.1348  0.0575 -0.0313
    1DIPC   GL128143  30.624  21.108   2.428 -0.0495 -0.2181  0.0621
    1DIPC   GL228144  30.530  21.066   2.761 -0.2355  0.0229 -0.2143
    1DIPC   C1A28145  31.070  21.258   2.615  0.2639 -0.2471  0.1300
    1DIPC   D2A28146  31.415  21.414   2.672 -0.1430 -0.1100 -0.1012
    1DIPC   D3A28147  31.275  21.524   3.128  0.1091 -0.1898 -0.0577
    1DIPC   C4A28148  31.111  21.330   3.526  0.1150  0.0120  0.2235
    1DIPC   C1B28149  30.180  20.777   2.930 -0.0651  0.1408  0.1397
    1DIPC   D2B28150  30.133  20.618   3.255 -0.1939 -0.0899  0.1438
    1DIPC   D3B28151  30.230  20.131   3.026  0.3124 -0.1876 -0.0736
    1DIPC   C4B28152  30.208  19.840   3.352  0.3023  0.0069 -0.2248
    1DIPC   NC328153  28.891   0.375   2.349 -0.2880  0.0667  0.1291
    1DIPC   PO428154  28.585   0.737   2.170  0.2268 -0.1041 -0.2371
    1DIPC   GL128155  28.614   0.742   2.572  0.1490 -0.2317  0.0955
    1DIPC   GL228156  28.201   0.667   2.731 -0.2149 -0.0071  0.1645
    1DIPC   C1A28157  28.649   0.572   3.033 -0.0022 -0.0097  0.1840
    1DIPC   D2A28158  28.545   0.399   3.456  0.1925 -0.0776 -0.4663
    1DIPC   D3A28159  28.493  -0.006   3.640 -0.0137 -0.0758 -0.2020
    1DIPC   C4A28160  28.060  -0.179   3.746  0.0552 -0.0780 -0.2140
    1DIPC   C1B28161  28.277   0.851   3.192  0.3246  0.2450 -0.0966
    1DIPC   D2B28162  28.179   1.235   3.533  0.1831 -0.1866  0.0964
    1DIPC   D3B28163  28.070   1.380   4.003 -0.0412  0.2983  0.2524
    1DIPC   C4B28164  27.935   1.390   4.450 -0.2012 -0.2596 -0.0346
    1DIPC   NC328165  22.456   9.755   2.618  0.2369 -0.0743 -0.1633
    1DIPC   PO428166  22.794   9.552   2.400  0.0653  0.1754  0.0251
    1DIPC   GL128167  22.867   9.394   2.811 -0.2557  0.0757  0.0787
    1DIPC   GL228168  23.001   9.012   2.902  0.1002 -0.3424 -0.0363
    1DIPC   C1A28169  23.296   9.418   3.009  0.1531 -0.2553 -0.1883
    1DIPC   D2A28170  23.764   9.543   3.040 -0.0649 -0.0248 -0.2386
    1DIPC   D3A28171  23.819   9.660   3.444  0.3612  0.1682 -0.2699
    1DIPC   C4A28172  24.160   9.698   3.608 -0.1653  0.0846  0.1429
    1DIPC   C1B28173  23.108   8.828   3.279  0.2165 -0.1332 -0.2250
    1DIPC   D2B28174  22.840   8.546   3.391  0.1187  0.0619  0.0509
    1DIPC   D3B28175  23.017   8.631   3.750  0.0498 -0.0068 -0.0454
    1DIPC   C4B28176  22.991   8.883   4.145 -0.0854 -0.1030 -0.0765
    1DIPC   NC328177  11.940  27.363   2.953  0.1757  0.1874  0.0859
    1DIPC   PO428178  12.329  27.562   3.136  0.0769 -0.2192  0.1282
    1DIPC   GL128179  12.558  27.407   3.458 -0.0954 -0.1022 -0.0604
    1DIPC   GL228180  12.775  27.570   3.565  0.4225  0.2977  0.1577
    1DIPC   C1A28181  12.386  27.330   3.888  0.1272 -0.3037 -0.0050
    1DIPC   D2A28182  12.032  27.551   4.207  0.1578 -0.0240 -0.1314
    1DIPC   D3A28183  11.645  27.446   4.571 -0.0323  0.0366  0.2020
    1DIPC   C4A28184  11.822  26.949   4.744 -0.0516 -0.1955  0.1436
    1DIPC   C1B28185  12.596  27.809   3.778  0.2130  0.1085 -0.3093
    1DIPC   D2B28186  12.244  28.121   3.920 -0.3210 -0.0429 -0.1245
    1DIPC   D3B28187  12.307  27.977   4.292 -0.0430  0.1190  0.1606
    1DIPC   C4B28188  12.574  27.651   4.411  0.0910 -0.0687  0.1213
    1DIPC   NC328189  20.630  25.188   2.619  0.2133  0.2268 -0.1765
    1DIPC   PO428190  20.966  25.359   2.922  0.0208  0.1491  0.1196
    1DIPC   GL128191  20.878  25.327   3.364  0.1137  0.1486 -0.3041
    1DIPC   GL228192  20.609  25.297   3.413 -0.1303  0.0147 -0.1075
    1DIPC   C1A28193  20.920  24.955   3.650 -0.1043  0.1844  0.3910
    1DIPC   D2A28194  20.798  24.520   3.646  0.1306 -0.1971 -0.2977
    1DIPC   D3A28195  20.715  24.069   3.413 -0.0821 -0.1343 -0.0294
    1DIPC   C4A28196  20.161  24.000   3.485  0.1715  0.0120  0.0954
    1DIPC   C1B28197  20.759  25.456   3.879  0.1559  0.0994  0.0528
    1DIPC   D2B28198  20.799  25.114   4.311  0.2227  0.1661  0.1605
    1DIPC   D3B28199  21.055  25.139   4.703  0.1201 -0.0425 -0.2147
    1DIPC   C4B28200  21.428  25.447   4.761  0.1167 -0.1310 -0.1491
    1DIPC   NC328201  18.994   4.301   3.349 -0.3272 -0.2731  0.1929
    1DIPC   PO428202  18.596   4.429   3.324  0.0141 -0.0639 -0.3191
    1DIPC   GL128203  18.662   4.537   3.711 -0.1480  0.0195  0.1340
    1DIPC   GL228204  18.834   4.317   3.811  0.0471 -0.0307  0.2368
    1DIPC   C1A28205  18.737   4.699   4.126 -0.1008 -0.0535  0.1464
    1DIPC   D2A28206  18.638   5.063   4.354  0.2020 -0.0763 -0.1489
    1DIPC   D3A28207  19.076   5.041   4.271 -0.2702 -0.3529 -0.2640
    1DIPC   C4A28208  19.222   5.157   4.718  0.1209 -0.0382 -0.1536
    1DIPC   C1B28209  18.748   4.229   4.246  0.0413  0.2649 -0.0015
    1DIPC   D2B28210  18.515   4.097   4.615  0.2083 -0.1452  0.0856
    1DIPC   D3B28211  18.625   3.876   5.064 -0.1591  0.0870  0.1307
    1DIPC   C4B28212  18.185   3.814   5.066 -0.0459 -0.0783 -0.0175
    1DIPC   NC328213  18.792  22.801   2.029 -0.1356  0.1215 -0.3201
    1DIPC   PO428214  18.615  22.581   2.393 -0.1587 -0.4544  0.0930
    1DIPC   GL128215  18.433  22.379   2.864  0.0868 -0.2364 -0.1456
    1DIPC   GL228216  18.592  22.094   2.911 -0.0016  0.0368  0.2114
    1DIPC   C1A28217  18.245  22.102   3.220  0.2190  0.2667  0.0813
    1DIPC   D2A28218  17.941  21.986   3.576 -0.1037 -0.3743 -0.2168
    1DIPC   D3A28219  18.019  22.280   3.943  0.2521 -0.1459  0.0726
    1DIPC   C4A28220  18.092  22.507   4.373 -0.0455  0.3341  0.0040
    1DIPC   C1B28221  18.634  22.336   3.353  0.0105 -0.0758  0.3376
    1DIPC   D2B28222  18.430  22.378   3.710 -0.0979 -0.1999  0.1915
    1DIPC   D3B28223  18.547  21.962   3.697 -0.0518  0.1015 -0.2010
    1DIPC   C4B28224  18.747  21.845   3.321  0.2267 -0.2405 -0.1825
    1DIPC   NC328225  23.335   3.207   2.267 -0.2479  0.0664 -0.3083
    1DIPC   PO428226  23.013   3.144   2.566  0.0279 -0.2082 -0.2482
    1DIPC   GL128227  23.031   3.163   2.989  0.2510 -0.0739 -0.2074
    1DIPC   GL228228  23.347   2.978   3.144 -0.4198  0.3626  0.0700
    1DIPC   C1A28229  23.013   3.347   3.439  0.1212 -0.1701  0.0062
    1DIPC   D2A28230  23.370   3.259   3.751  0.1106 -0.0308 -0.0899
    1DIPC   D3A28231  23.614   3.442   4.106 -0.1461  0.2549  0.2393
    1DIPC   C4A28232  23.903   3.235   4.387 -0.2340  0.1276 -0.1347
    1DIPC   C1B28233  23.536   3.320   3.268 -0.1146 -0.2642  0.1533
    1DIPC   D2B28234  23.722   3.722   3.564 -0.2447 -0.1101 -0.0798
    1DIPC   D3B28235  23.216   3.769   3.744  0.1961 -0.3424  0.1978
    1DIPC   C4B28236  22.960   4.108   3.842 -0.3074 -0.2120 -0.0650
    1DIPC   NC328237  22.852  20.602   1.955  0.0789 -0.1978 -0.0103
    1DIPC   PO428238  22.667  20.687   2.387 -0.1184  0.1420  0.0853
    1DIPC   GL128239  22.782  21.034   2.719 -0.0918  0.5225  0.1732
    1DIPC   GL228240  23.162  21.024   2.830  0.2209  0.0979  0.1572
    1DIPC   C1A28241  22.656  21.166   3.161 -0.3188  0.1870 -0.2533
    1DIPC   D2A28242  22.406  20.975   3.352  0.0208  0.0374  0.2051
    1DIPC   D3A28243  22.503  20.858   3.827  0.1811  0.1105 -0.1359
    1DIPC   C4A28244  22.381  20.539   4.025 -0.0208 -0.1170 -0.0017
    1DIPC   C1B28245  23.163  21.166   3.293  0.2857  0.0822 -0.0428
    1DIPC   D2B28246  22.795  21.267   3.602  0.3054  0.3663  0.0749
    1DIPC   D3B28247  22.677  21.400   4.018 -0.0731  0.0794 -0.1309
    1DIPC   C4B28248  22.789  21.279   4.425  0.0438  0.0695  0.0586
    1DIPC   NC328249   6.405  13.268   3.275 -0.0011  0.0922  0.1680
    1DIPC   PO428250   6.814  13.093   3.281  0.0007  0.3842  0.0027
    1DIPC   GL128251   6.579  13.089   3.719 -0.1829 -0.3117  0.1960
    1DIPC   GL228252   6.866  12.992   3.819 -0.2205 -0.0411  0.2379
    1DIPC   C1A28253   6.352  13.301   4.106  0.2605 -0.0449 -0.1136
    1DIPC   D2A28254   6.291  13.404   4.496  0.2023  0.2465 -0.2968
    1DIPC   D3A28255   6.743  13.520   4.483 -0.4668 -0.4908  0.0672
    1DIPC   C4A28256   7.111  13.665   4.753 -0.0430 -0.0073 -0.2666
    1DIPC   C1B28257   6.752  13.041   4.285  0.1475  0.3175  0.2998
    1DIPC   D2B28258   6.912  12.914   4.613  0.0833 -0.3367 -0.1898
    1DIPC   D3B28259   7.398  13.041   4.748  0.1289  0.3985  0.3233
    1DIPC   C4B28260   7.702  13.460   4.625  0.0657  0.3394 -0.3367
    1DIPC   NC328261   6.620  19.747   1.832  0.3596  0.1681  0.1194
    1DIPC   PO428262   6.359  19.517   2.131 -0.0444  0.4082 -0.2743
    1DIPC   GL128263   6.439  19.583   2.493  0.3372 -0.3722  0.2656
    1DIPC   GL228264   6.341  19.857   2.649  0.1775  0.0566 -0.4089
    1DIPC   C1A28265   6.430  19.314   2.885  0.0784 -0.3876 -0.0230
    1DIPC   D2A28266   6.196  19.353   3.277  0.3107  0.3274  0.2971
    1DIPC   D3A28267   6.605  19.161   3.588  0.0908 -0.0714 -0.1312
    1DIPC   C4A28268   6.381  19.218   4.014 -0.0819  0.0062 -0.0136
    1DIPC   C1B28269   6.072  19.734   2.924  0.2201  0.1028 -0.2461
    1DIPC   D2B28270   5.935  20.031   3.302  0.0526 -0.2016  0.0343
    1DIPC   D3B28271   5.488  19.953   3.229 -0.0327  0.1631  0.3487
    1DIPC   C4B28272   5.175  20.001   3.600 -0.1262  0.1099  0.2946
    1DIPC   NC328273  13.269   1.975   3.515  0.0303  0.1114  0.0340
    1DIPC   PO428274  12.982   2.073   3.930 -0.1417 -0.1748 -0.1540
    1DIPC   GL128275  13.049   1.996   4.401  0.0571 -0.0223  0.0631
    1DIPC   GL228276  13.372   2.000   4.400 -0.0141 -0.2069 -0.0357
    1DIPC   C1A28277  13.108   2.078   4.878 -0.0311  0.0056 -0.1940
    1DIPC   D2A28278  13.010   2.108   5.308 -0.0442 -0.2901 -0.1929
    1DIPC   D3A28279  12.891   1.818   5.628  0.0152  0.0360  0.1077
    1DIPC   C4A28280  13.185   1.487   5.599 -0.2147  0.1065  0.0368
    1DIPC   C1B28281  13.450   1.686   4.699 -0.0814  0.0922  0.0540
    1DIPC   D2B28282  13.695   1.287   4.864 -0.1459  0.1740  0.2262
    1DIPC   D3B28283  13.555   1.382   5.254 -0.0961  0.2358  0.1295
    1DIPC   C4B28284  13.443   1.011   5.493 -0.2378 -0.1183 -0.1983
    1DIPC   NC328285   3.816  12.456   2.450  0.4818 -0.1314  0.1181
    1DIPC   PO428286   3.747  12.826   2.777 -0.0253  0.3240  0.1071
    1DIPC   GL128287   3.737  12.910   3.117  0.0396  0.2347 -0.0692
    1DIPC   GL228288   3.954  13.310   3.210  0.0072  0.1045 -0.1900
    1DIPC   C1A28289   3.527  12.799   3.509  0.0931  0.0029  0.0487
    1DIPC   D2A28290   3.070  12.842   3.677 -0.0138 -0.0467 -0.1512
    1DIPC   D3A28291   3.345  12.693   3.992 -0.1161  0.0547 -0.1640
    1DIPC   C4A28292   3.688  12.911   3.973 -0.0271 -0.1256 -0.0231
    1DIPC   C1B28293   3.736  13.270   3.582 -0.0838 -0.0577  0.2373
    1DIPC   D2B28294   3.733  13.495   4.107  0.1645  0.0968 -0.1991
    1DIPC   D3B28295   3.897  13.218   4.424 -0.1894 -0.0404 -0.0321
    1DIPC   C4B28296   3.834  13.178   4.851  0.0839  0.0955 -0.0225
    1DIPC   NC328297  18.881   7.214   3.139 -0.1761 -0.0240  0.1917
    1DIPC   PO428298  18.410   7.109   3.153  0.0343  0.0316 -0.2781
    1DIPC   GL128299  18.570   7.536   3.317  0.1702  0.2761 -0.1321
    1DIPC   GL228300  18.427   7.866   3.256 -0.1756 -0.0152 -0.1072
    1DIPC   C1A28301  18.742   7.672   3.693 -0.0738 -0.2696 -0.1886
    1DIPC   D2A28302  18.639   7.749   4.062  0.1909  0.1063 -0.0958
    1DIPC   D3A28303  18.817   7.705   4.466  0.0131 -0.2749 -0.2065
    1DIPC   C4A28304  18.893   8.056   4.558  0.0934 -0.1758 -0.2381
    1DIPC   C1B28305  18.526   8.167   3.715 -0.0580  0.1877 -0.0835
    1DIPC   D2B28306  18.565   8.315   4.130  0.0881  0.1318 -0.0271
    1DIPC   D3B28307  18.355   8.600   4.320  0.0148 -0.1279  0.0362
    1DIPC   C4B28308  18.688   8.657   4.564 -0.1482 -0.2889  0.2748
    1DIPC   NC328309   3.470   3.944   2.911 -0.2951  0.1424  0.1500
    1DIPC   PO428310   3.087   3.882   2.962  0.3039 -0.1845 -0.0425
    1DIPC   GL128311   3.303   3.963   3.369 -0.3946  0.2110  0.1381
    1DIPC   GL228312   3.666   3.961   3.373 -0.0448  0.0456 -0.0649
    1DIPC   C1A28313   3.284   4.171   3.687  0.0070  0.1518 -0.2099
    1DIPC   D2A28314   3.280   4.610   4.036  0.0839 -0.1991 -0.2359
    1DIPC   D3A28315   3.281   4.639   4.509 -0.0920 -0.2144 -0.0271
    1DIPC   C4A28316   3.170   4.332   4.753  0.1307 -0.0817 -0.0520
    1DIPC   C1B28317   4.077   3.770   3.560 -0.0185 -0.3368 -0.0348
    1DIPC   D2B28318   4.381   3.418   3.508 -0.0603 -0.0150 -0.0772
    1DIPC   D3B28319   4.638   3.463   3.825 -0.4653  0.1409  0.0672
    1DIPC   C4B28320   4.890   3.943   3.912  0.0687 -0.1744 -0.1889
    1DIPC   NC328321  16.398  25.408   3.041  0.1434  0.2037  0.1185
    1DIPC   PO428322  16.329  25.032   3.010  0.1802 -0.0255  0.0640
    1DIPC   GL128323  16.291  25.089   3.495  0.0214  0.2118  0.2529
    1DIPC   GL228324  15.960  25.175   3.468  0.1014 -0.1639 -0.2661
    1DIPC   C1A28325  16.420  24.782   3.845  0.2322 -0.1172  0.0948
    1DIPC   D2A28326  16.718  24.832   4.221 -0.0948 -0.0421  0.0830
    1DIPC   D3A28327  16.546  25.185   4.622 -0.1825 -0.1272  0.0393
    1DIPC   C4A28328  16.393  25.653   4.479  0.1042  0.1309  0.1519
    1DIPC   C1B28329  15.924  24.965   3.806 -0.3027  0.1277  0.2853
    1DIPC   D2B28330  15.921  24.573   4.133 -0.1746  0.1100 -0.2608
    1DIPC   D3B28331  16.105  24.867   4.352 -0.1289 -0.2133 -0.0039
    1DIPC   C4B28332  15.849  25.252   4.209  0.1562 -0.1405  0.1666
    1DIPC   NC328333  12.449   1.957   3.732 -0.1899 -0.4538 -0.1373
    1DIPC   PO428334  11.948   1.827   3.778  0.1963  0.0368  0.0001
    1DIPC   GL128335  12.077   1.647   4.096  0.1255  0.0928 -0.0067
    1DIPC   GL228336  12.167   1.308   4.270 -0.2007  0.1028 -0.1385
    1DIPC   C1A28337  12.297   1.755   4.566 -0.1726 -0.0544  0.1144
    1DIPC   D2A28338  12.240   1.453   4.929 -0.0051  0.0435 -0.0466
    1DIPC   D3A28339  12.214   1.589   5.382  0.3088  0.2422 -0.0330
    1DIPC   C4A28340  12.429   1.975   5.583  0.1852 -0.2311 -0.0293
    1DIPC   C1B28341  12.045   1.074   4.566  0.0864 -0.0055  0.0968
    1DIPC   D2B28342  11.936   1.075   5.047 -0.3423 -0.1671 -0.0903
    1DIPC   D3B28343  11.957   1.186   5.478 -0.2198 -0.0590  0.0287
    1DIPC   C4B28344  11.858   0.871   5.674  0.0071 -0.0842 -0.2473
    1DIPC   NC328345  13.598   0.422   3.359  0.0115 -0.2045  0.1886
    1DIPC   PO428346  13.402   0.421   3.745  0.1468 -0.2392 -0.0362
    1DIPC   GL128347  13.278   0.427   4.128 -0.1015  0.0686  0.1114
    1DIPC   GL228348  13.527   0.242   4.248 -0.1660  0.1345 -0.0674
    1DIPC   C1A28349  13.297   0.564   4.533  0.1584 -0.1799 -0.2194
    1DIPC   D2A28350  13.133   0.431   4.998 -0.3285  0.0795  0.0758
    1DIPC   D3A28351  12.655   0.391   5.225  0.0612  0.1435 -0.2170
    1DIPC   C4A28352  12.242   0.182   5.128 -0.4013  0.0291  0.2583
    1DIPC   C1B28353  13.525  -0.044   4.685  0.2112 -0.0849 -0.2522
    1DIPC   D2B28354  13.501  -0.105   5.182  0.2005  0.0512 -0.0769
    1DIPC   D3B28355  13.785  -0.425   5.062 -0.3292 -0.0244 -0.1278
    1DIPC   C4B28356  13.796  -0.617   4.628 -0.2006 -0.0878  0.3344
    1DIPC   NC328357   7.022  10.290   3.563  0.1441 -0.1119  0.2974
    1DIPC   PO428358   6.728  10.068   3.472 -0.1366  0.0236  0.3152
    1DIPC   GL128359   6.675  10.171   3.868 -0.2030  0.3068  0.2930
    1DIPC   GL228360   6.938  10.248   4.030 -0.0120 -0.0255  0.2512
    1DIPC   C1A28361   6.543  10.110   4.309  0.1558 -0.2303 -0.0916
    1DIPC   D2A28362   6.556  10.257   4.709 -0.2907 -0.0938  0.0282
    1DIPC   D3A28363   6.742  10.136   5.175 -0.0727  0.0529  0.0156
    1DIPC   C4A28364   6.484   9.865   5.520 -0.3846  0.0982  0.1720
    1DIPC   C1B28365   6.925  10.416   4.442  0.1503 -0.1084 -0.0817
    1DIPC   D2B28366   6.913  10.588   4.891  0.1046 -0.0654  0.0559
    1DIPC   D3B28367   6.555  10.805   4.638 -0.1562 -0.1143  0.2321
    1DIPC   C4B28368   6.209  11.034   4.853  0.4120  0.2421 -0.1316
    1DIPC   NC328369  26.182   6.055   2.862  0.0448  0.3103  0.0102
    1DIPC   PO428370  25.928   5.778   3.059  0.0444 -0.0309  0.2149
    1DIPC   GL128371  25.832   5.806   3.425 -0.0419 -0.1382 -0.0565
    1DIPC   GL228372  25.572   5.856   3.670 -0.1589  0.0831 -0.2708
    1DIPC   C1A28373  26.053   5.619   3.866  0.5243 -0.1478  0.1040
    1DIPC   D2A28374  26.535   5.476   4.083 -0.2463  0.1175  0.2439
    1DIPC   D3A28375  26.901   5.594   3.970 -0.1279  0.0212 -0.1506
    1DIPC   C4A28376  26.958   5.727   3.590 -0.1254  0.0034  0.3234
    1DIPC   C1B28377  25.747   6.071   4.048  0.3210  0.1502  0.1845
    1DIPC   D2B28378  25.760   6.337   4.249 -0.3367  0.0180  0.0679
    1DIPC   D3B28379  25.535   6.227   4.543  0.1655 -0.0497 -0.1021
    1DIPC   C4B28380  25.665   6.551   4.895  0.0875 -0.0585  0.0020
    1DIPC   NC328381  23.242   1.914   2.923 -0.1654  0.0844  0.0116
    1DIPC   PO428382  22.821   1.695   3.084  0.0540 -0.4405  0.2727
    1DIPC   GL128383  22.978   1.812   3.444  0.1003 -0.0743  0.2231
    1DIPC   GL228384  23.277   1.823   3.442  0.1381  0.2680  0.1374
    1DIPC   C1A28385  22.852   1.951   3.809  0.1977  0.1666 -0.0841
    1DIPC   D2A28386  22.989   2.037   4.287  0.0122  0.1902  0.0517
    1DIPC   D3A28387  23.458   1.975   4.215 -0.2246 -0.1759 -0.0509
    1DIPC   C4A28388  23.813   2.299   4.268  0.0966 -0.0049 -0.0187
    1DIPC   C1B28389  23.242   1.697   3.872  0.0955 -0.0287 -0.2007
    1DIPC   D2B28390  23.445   1.445   4.109 -0.1818  0.0202  0.1935
    1DIPC   D3B28391  23.583   1.529   4.377  0.1851  0.1509 -0.1193
    1DIPC   C4B28392  23.943   1.877   4.508  0.0860 -0.3739  0.0287
    1DIPC   NC328393   8.941   2.957   3.253  0.4531 -0.0278  0.2815
    1DIPC   PO428394   8.479   2.870   3.229  0.0045 -0.1345 -0.1234
    1DIPC   GL128395   8.236   2.919   3.631 -0.3167  0.1829 -0.0911
    1DIPC   GL228396   8.270   3.293   3.616  0.0167  0.0136 -0.0308
    1DIPC   C1A28397   8.090   3.120   4.027 -0.0917  0.1415 -0.2378
    1DIPC   D2A28398   7.909   2.980   4.351 -0.0150 -0.2074 -0.0160
    1DIPC   D3A28399   7.905   3.206   4.706 -0.3516  0.1922 -0.1366
    1DIPC   C4A28400   7.952   3.032   5.190 -0.0306  0.0393  0.1232
    1DIPC   C1B28401   7.972   3.565   3.803  0.1329 -0.1641 -0.4253
    1DIPC   D2B28402   7.706   3.749   4.164  0.0225 -0.3180 -0.1106
    1DIPC   D3B28403   7.630   3.529   4.509  0.3290 -0.1753 -0.1785
    1DIPC   C4B28404   7.678   3.863   4.781  0.1172  0.0281 -0.0513
    1DIPC   NC328405  29.567   7.325   2.558 -0.1089 -0.0343 -0.0211
    1DIPC   PO428406  29.958   7.102   2.689  0.3863 -0.2330 -0.1492
    1DIPC   GL128407  30.145   6.953   3.060 -0.1437  0.1006  0.0694
    1DIPC   GL228408  29.890   6.757   3.147  0.3413  0.3278  0.0799
    1DIPC   C1A28409  30.164   7.070   3.537  0.2810 -0.1496 -0.1711
    1DIPC   D2A28410  30.168   7.177   3.970 -0.1362  0.0779 -0.4861
    1DIPC   D3A28411  30.132   7.591   4.073 -0.1218  0.2942 -0.3416
    1DIPC   C4A28412  29.994   7.729   3.677  0.0060  0.0867  0.2204
    1DIPC   C1B28413  29.892   6.562   3.576  0.0720  0.1423  0.2273
    1DIPC   D2B28414  29.706   6.245   3.838 -0.1591 -0.1074  0.0546
    1DIPC   D3B28415  29.315   6.399   4.098 -0.1280  0.1996 -0.2917
    1DIPC   C4B28416  29.354   6.821   4.193 -0.1813  0.1221 -0.1241
    1DIPC   NC328417  25.870  15.317   1.879 -0.0651 -0.1871 -0.0791
    1DIPC   PO428418  26.102  15.681   1.925 -0.0338  0.1082 -0.0798
    1DIPC   GL128419  26.241  15.669   2.369 -0.0292 -0.1830 -0.3712
    1DIPC   GL228420  26.053  15.399   2.499  0.2324 -0.0122 -0.2882
    1DIPC   C1A28421  26.209  15.720   2.830  0.0417 -0.1310  0.0746
    1DIPC   D2A28422  26.196  15.841   3.275 -0.0510 -0.3350 -0.1551
    1DIPC   D3A28423  26.469  16.265   3.207 -0.2035  0.0822  0.0214
    1DIPC   C4A28424  26.861  16.142   2.898 -0.1037 -0.1526 -0.1941
    1DIPC   C1B28425  25.655  15.388   2.587 -0.0840  0.0121 -0.0115
    1DIPC   D2B28426  25.328  15.654   2.576  0.0135 -0.2092 -0.0976
    1DIPC   D3B28427  25.265  15.622   2.925  0.3253 -0.1457  0.3493
    1DIPC   C4B28428  25.437  15.230   3.045 -0.2345 -0.0797 -0.1351
    1DIPC   NC328429   8.457   0.322   2.714 -0.0721 -0.0239  0.1195
    1DIPC   PO428430   8.350   0.457   3.190 -0.0670 -0.0744  0.0368
    1DIPC   GL128431   8.395   0.175   3.623 -0.1753  0.0525 -0.1373
    1DIPC   GL228432   8.261   0.353   3.697  0.2153  0.1842 -0.0686
    1DIPC   C1A28433   8.637   0.298   4.045 -0.1144 -0.0365 -0.1834
    1DIPC   D2A28434   8.741   0.347   4.453  0.3392  0.3805  0.0469
    1DIPC   D3A28435   8.894   0.812   4.610 -0.1044  0.1101  0.2167
    1DIPC   C4A28436   8.587   1.129   4.526 -0.2331 -0.0743  0.2076
    1DIPC   C1B28437   7.976   0.504   3.975 -0.1930  0.0322 -0.3261
    1DIPC   D2B28438   7.648   0.825   4.174 -0.1004  0.0938 -0.3460
    1DIPC   D3B28439   7.522   0.802   4.571  0.0937 -0.1846  0.0461
    1DIPC   C4B28440   7.735   0.455   4.655  0.1400  0.2407  0.1138
    1DIPC   NC328441   8.965  19.703   1.934 -0.0868 -0.2472 -0.2415
    1DIPC   PO428442   8.993  19.665   2.340 -0.1527 -0.0359 -0.0758
    1DIPC   GL128443   8.942  19.407   2.761  0.1234  0.3853 -0.0451
    1DIPC   GL228444   8.660  19.309   2.683 -0.3031 -0.2074 -0.0848
    1DIPC   C1A28445   8.854  19.623   3.231 -0.0604  0.1980  0.0255
    1DIPC   D2A28446   8.915  19.710   3.604 -0.0189  0.2479 -0.1956
    1DIPC   D3A28447   9.025  19.924   3.998 -0.1114  0.3611 -0.0133
    1DIPC   C4A28448   8.816  19.585   4.232  0.0222 -0.0646 -0.3866
    1DIPC   C1B28449   8.425  19.311   3.106  0.2286  0.0130  0.0380
    1DIPC   D2B28450   8.072  19.453   3.317  0.1649 -0.3652  0.0957
    1DIPC   D3B28451   8.263  19.482   3.662 -0.0303 -0.1994 -0.0646
    1DIPC   C4B28452   8.223  19.324   4.031  0.1084  0.1162 -0.0641
    1DIPC   NC328453  10.872   4.114   2.957 -0.0122  0.0944 -0.1684
    1DIPC   PO428454  10.717   3.892   3.260 -0.0423 -0.2924 -0.0558
    1DIPC   GL128455  10.955   3.813   3.624 -0.0053  0.1113 -0.0043
    1DIPC   GL228456  11.088   4.013   3.812  0.1292  0.0305  0.2282
    1DIPC   C1A28457  10.748   3.631   4.010 -0.0500 -0.0060  0.3814
    1DIPC   D2A28458  10.428   3.267   4.010 -0.2571 -0.4518  0.0440
    1DIPC   D3A28459  10.255   3.359   4.363 -0.0942 -0.2598 -0.0786
    1DIPC   C4A28460  10.212   3.632   4.673  0.0571 -0.3071 -0.0342
    1DIPC   C1B28461  10.769   4.222   4.072  0.0279  0.2325 -0.0424
    1DIPC   D2B28462  10.435   4.378   4.337  0.2535 -0.0725 -0.0605
    1DIPC   D3B28463  10.543   4.853   4.296 -0.4040  0.1743  0.0053
    1DIPC   C4B28464  10.283   5.081   4.568 -0.3667  0.0967 -0.2654
    1DIPC   NC328465   2.442   3.414   3.033 -0.4220 -0.1687  0.1059
    1DIPC   PO428466   1.939   3.477   3.126  0.0395 -0.2619  0.0147
    1DIPC   GL128467   2.223   3.590   3.448 -0.3795 -0.0398 -0.1800
    1DIPC   GL228468   2.483   3.727   3.415  0.0079  0.1392 -0.1338
    1DIPC   C1A28469   2.309   3.914   3.918 -0.3428  0.0307  0.0039
    1DIPC   D2A28470   2.358   4.243   4.284  0.1082 -0.1220  0.0673
    1DIPC   D3A28471   2.017   4.127   4.479  0.2627 -0.1410  0.4052
    1DIPC   C4A28472   1.557   4.043   4.408  0.3650 -0.0151  0.0698
    1DIPC   C1B28473   2.807   3.835   3.693  0.3349 -0.1033  0.1308
    1DIPC   D2B28474   2.980   3.813   4.062 -0.2259  0.2984 -0.2760
    1DIPC   D3B28475   3.167   3.640   4.410 -0.3288  0.5295 -0.0282
    1DIPC   C4B28476   3.507   3.871   4.601 -0.2867  0.2845 -0.2631
    1DIPC   NC328477  27.303   7.448   2.360 -0.0222 -0.1656  0.2646
    1DIPC   PO428478  27.238   7.751   2.385 -0.0896  0.0081 -0.0713
    1DIPC   GL128479  27.311   7.762   2.773  0.2681  0.0029 -0.1190
    1DIPC   GL228480  27.345   8.062   2.707 -0.3570  0.1541  0.0026
    1DIPC   C1A28481  27.218   7.679   3.313 -0.0932 -0.0946 -0.2173
    1DIPC   D2A28482  27.317   7.376   3.656 -0.0511 -0.0410 -0.0085
    1DIPC   D3A28483  27.181   7.074   3.968 -0.0358  0.3842 -0.0075
    1DIPC   C4A28484  27.323   6.656   4.033  0.0859  0.2363  0.0282
    1DIPC   C1B28485  27.253   8.171   3.200  0.0106 -0.0408  0.3180
    1DIPC   D2B28486  27.434   8.434   3.437  0.3943  0.0727  0.1858
    1DIPC   D3B28487  27.596   8.345   3.804  0.0152  0.1587  0.0725
    1DIPC   C4B28488  27.593   8.616   4.188  0.1189 -0.0308  0.2262
    1DIPC   NC328489  28.478  26.199   2.584  0.3513  0.0151  0.0997
    1DIPC   PO428490  28.345  26.508   2.976  0.1352  0.1994  0.0908
    1DIPC   GL128491  28.374  26.568   3.437  0.0396 -0.1711  0.3948
    1DIPC   GL228492  28.101  26.780   3.465 -0.1911 -0.0521  0.0701
    1DIPC   C1A28493  28.431  26.850   3.790 -0.0773 -0.1859  0.1060
    1DIPC   D2A28494  28.467  26.820   4.212 -0.0509  0.0322 -0.2947
    1DIPC   D3A28495  28.124  26.687   4.530  0.0252  0.0039 -0.1709
    1DIPC   C4A28496  28.202  26.282   4.748  0.0021 -0.2495  0.2247
    1DIPC   C1B28497  27.826  26.456   3.725 -0.1155  0.2775  0.0561
    1DIPC   D2B28498  27.745  26.499   4.196 -0.0023  0.4085 -0.0242
    1DIPC   D3B28499  27.778  26.191   4.463  0.5701 -0.2412 -0.2024
    1DIPC   C4B28500  27.979  25.893   4.565 -0.2487  0.1625  0.0008
    1DIPC   NC328501   0.595  23.118   2.061  0.2199  0.2244 -0.0743
    1DIPC   PO428502   0.746  23.629   1.908 -0.4562  0.0567 -0.0361
    1DIPC   GL128503   0.659  23.520   2.289  0.4020 -0.1748 -0.2701
    1DIPC   GL228504   0.479  23.709   2.495 -0.0359  0.4009  0.2560
    1DIPC   C1A28505   0.829  23.427   2.729  0.0957 -0.2208  0.0310
    1DIPC   D2A28506   1.049  23.477   3.145  0.1812 -0.0310  0.1008
    1DIPC   D3A28507   1.202  23.866   3.338  0.0663 -0.1516  0.0981
    1DIPC   C4A28508   0.921  24.059   3.652  0.1904  0.0424  0.1673
    1DIPC   C1B28509   0.330  23.324   2.833  0.1244 -0.0893  0.1895
    1DIPC   D2B28510   0.326  23.370   3.227  0.1478 -0.0592  0.2924
    1DIPC   D3B28511   0.665  23.142   3.401 -0.0964  0.0627 -0.2263
    1DIPC   C4B28512   1.083  23.323   3.594  0.0364  0.4351 -0.0688
    1DIPC   NC328513   2.673  17.600   1.855 -0.1993 -0.1914  0.0560
    1DIPC   PO428514   2.707  18.083   1.738 -0.0273  0.2004 -0.2108
    1DIPC   GL128515   2.845  18.047   2.116 -0.1473  0.4588 -0.0161
    1DIPC   GL228516   2.615  17.846   2.304 -0.0699  0.0038 -0.1027
    1DIPC   C1A28517   2.923  18.373   2.471  0.0526  0.2349 -0.0581
    1DIPC   D2A28518   3.053  18.552   2.945  0.2307 -0.0191  0.1423
    1DIPC   D3A28519   2.741  18.589   3.156  0.2329 -0.1307  0.2135
    1DIPC   C4A28520   2.477  18.468   2.859 -0.2379 -0.2307  0.2944
    1DIPC   C1B28521   2.910  17.784   2.574 -0.2890 -0.1532  0.0211
    1DIPC   D2B28522   2.861  17.972   2.927 -0.0279  0.1888 -0.1296
    1DIPC   D3B28523   2.436  17.898   2.868  0.2258  0.0644  0.3452
    1DIPC   C4B28524   2.185  18.210   3.200 -0.0188 -0.0863  0.1117
    1DIPC   NC328525  14.566  29.597   3.021 -0.2838 -0.3135  0.1458
    1DIPC   PO428526  14.838  29.620   3.334 -0.0225 -0.2897 -0.0982
    1DIPC   GL128527  14.903  29.510   3.778  0.1328 -0.2503  0.1263
    1DIPC   GL228528  15.184  29.735   3.925 -0.0831  0.0259 -0.0212
    1DIPC   C1A28529  14.704  29.633   4.176  0.1990 -0.1874  0.0555
    1DIPC   D2A28530  14.747  29.525   4.611  0.2199 -0.1537 -0.3557
    1DIPC   D3A28531  14.349  29.422   4.610  0.0458  0.1154 -0.2124
    1DIPC   C4A28532  14.239  29.385   5.034 -0.3250 -0.1324 -0.2469
    1DIPC   C1B28533  15.285  29.721   4.364 -0.1619 -0.0151  0.1812
    1DIPC   D2B28534  15.684  29.773   4.600 -0.1292 -0.0005  0.3423
    1DIPC   D3B28535  15.713  29.233   4.407 -0.0365  0.3425  0.3060
    1DIPC   C4B28536  15.730  28.941   4.727 -0.2883 -0.0388 -0.1895
    1DIPC   NC328537   0.713   6.347   2.671  0.1317  0.0709 -0.2259
    1DIPC   PO428538   0.633   5.982   2.925  0.1965 -0.0567  0.2572
    1DIPC   GL128539   0.914   6.223   3.231 -0.0703 -0.3398  0.0749
    1DIPC   GL228540   0.597   6.210   3.438  0.6785  0.1534 -0.1021
    1DIPC   C1A28541   0.962   6.644   3.491  0.4342  0.0751 -0.1582
    1DIPC   D2A28542   1.214   6.796   3.825  0.0133 -0.0297 -0.1412
    1DIPC   D3A28543   1.199   6.331   3.936  0.1477  0.2831 -0.0946
    1DIPC   C4A28544   1.489   5.973   3.881 -0.2783 -0.0008 -0.0772
    1DIPC   C1B28545   0.602   5.796   3.699  0.1620 -0.0431  0.1820
    1DIPC   D2B28546   0.630   5.429   4.009  0.1544  0.1601 -0.0169
    1DIPC   D3B28547   0.305   5.129   3.863  0.1384  0.1583  0.0807
    1DIPC   C4B28548  -0.095   4.994   4.001  0.1894 -0.2278 -0.1733
    1DIPC   NC328549   4.058  13.742   1.877  0.1187  0.3816 -0.0147
    1DIPC   PO428550   4.124  14.161   2.122  0.2284 -0.2819  0.1393
    1DIPC   GL128551   3.982  14.317   2.573 -0.1582 -0.1696 -0.2530
    1DIPC   GL228552   3.754  14.458   2.686 -0.1636 -0.1660  0.0800
    1DIPC   C1A28553   4.055  14.154   2.984  0.1406  0.2472 -0.1817
    1DIPC   D2A28554   3.940  14.076   3.392 -0.2032  0.0042  0.0573
    1DIPC   D3A28555   3.958  14.179   3.854  0.0661  0.1814 -0.1106
    1DIPC   C4A28556   3.784  14.519   4.000  0.1478  0.2727  0.0087
    1DIPC   C1B28557   3.939  14.686   3.008  0.1323  0.2169 -0.3080
    1DIPC   D2B28558   3.793  14.628   3.491  0.0835 -0.3229 -0.0906
    1DIPC   D3B28559   3.367  14.838   3.587  0.0855  0.2827 -0.3669
    1DIPC   C4B28560   3.379  15.243   3.836  0.3177 -0.0938 -0.1211
    1DIPC   NC328561  29.260  26.158   2.954  0.1342  0.1557  0.1048
    1DIPC   PO428562  29.473  26.270   2.734 -0.0216 -0.1084 -0.0633
    1DIPC   GL128563  29.733  26.330   3.127 -0.0892 -0.0712 -0.0972
    1DIPC   GL228564  29.538  26.350   3.409 -0.0615 -0.2910  0.1491
    1DIPC   C1A28565  30.006  26.036   3.232 -0.3130  0.0044 -0.4791
    1DIPC   D2A28566  29.850  25.727   3.539 -0.1035 -0.3822 -0.1399
    1DIPC   D3A28567  29.410  25.836   3.330  0.1843  0.3421 -0.0519
    1DIPC   C4A28568  29.085  25.736   3.564 -0.0555 -0.3349 -0.0659
    1DIPC   C1B28569  29.784  26.196   3.703  0.1021 -0.2783 -0.1396
    1DIPC   D2B28570  30.130  26.255   3.963 -0.0312  0.1633 -0.3358
    1DIPC   D3B28571  30.046  26.310   4.407  0.2093  0.0111  0.3316
    1DIPC   C4B28572  30.406  26.346   4.619 -0.0385  0.5037 -0.2269
    1DIPC   NC328573   8.747   0.826   3.102 -0.0751  0.2069 -0.3960
    1DIPC   PO428574   9.057   0.693   3.344 -0.1685 -0.0453  0.2952
    1DIPC   GL128575   9.052   0.908   3.716  0.1188  0.4012 -0.1822
    1DIPC   GL228576   9.267   0.741   3.877  0.0420  0.2290  0.4847
    1DIPC   C1A28577   8.870   0.935   4.111 -0.3880 -0.1161 -0.0862
    1DIPC   D2A28578   8.736   1.404   4.122  0.1436 -0.0514  0.0250
    1DIPC   D3A28579   8.499   1.590   4.530 -0.1272 -0.0967 -0.2383
    1DIPC   C4A28580   8.374   1.382   4.904 -0.0880  0.2317  0.0148
    1DIPC   C1B28581   9.184   0.401   4.131 -0.1899 -0.0725  0.1450
    1DIPC   D2B28582   9.527   0.109   4.306  0.1788 -0.0793  0.0051
    1DIPC   D3B28583   9.327  -0.317   4.198 -0.0020  0.1689  0.1450
    1DIPC   C4B28584   9.186  -0.529   4.474 -0.0950 -0.0160  0.2067
    1DIPC   NC328585  21.392  20.283   2.346  0.3398  0.0383  0.1871
    1DIPC   PO428586  21.070  20.616   2.075 -0.3245  0.3797 -0.0637
    1DIPC   GL128587  20.900  20.606   2.483  0.2549  0.2025  0.1697
    1DIPC   GL228588  20.841  20.347   2.654  0.0641 -0.2085  0.0456
    1DIPC   C1A28589  20.814  20.866   2.872 -0.1367 -0.0400  0.3360
    1DIPC   D2A28590  20.606  21.134   3.140  0.0884 -0.1064 -0.0675
    1DIPC   D3A28591  20.755  21.226   3.532  0.1663 -0.3829  0.1814
    1DIPC   C4A28592  20.648  21.056   3.885 -0.0986  0.2440  0.0019
    1DIPC   C1B28593  20.907  20.343   3.129  0.1453 -0.0265  0.2031
    1DIPC   D2B28594  20.963  20.206   3.539  0.0467  0.0087 -0.2048
    1DIPC   D3B28595  20.932  20.337   3.996 -0.0116  0.0446  0.1273
    1DIPC   C4B28596  21.279  20.494   4.106 -0.0568 -0.0729 -0.1618
    1DIPC   NC328597   6.443  21.067   1.857  0.0936  0.0068 -0.0692
    1DIPC   PO428598   6.117  21.187   2.066  0.3136 -0.0347 -0.0192
    1DIPC   GL128599   6.164  20.951   2.422 -0.3976  0.0724  0.1755
    1DIPC   GL228600   5.921  20.967   2.526 -0.0767  0.2316  0.0895
    1DIPC   C1A28601   6.328  21.153   2.759  0.1723 -0.0225 -0.1195
    1DIPC   D2A28602   6.263  21.345   3.145  0.5439  0.1566 -0.2540
    1DIPC   D3A28603   6.695  21.263   3.429 -0.0796 -0.0458 -0.1041
    1DIPC   C4A28604   6.774  21.122   3.773  0.3938 -0.0433  0.0576
    1DIPC   C1B28605   5.798  21.158   2.895  0.0220  0.0666 -0.0464
    1DIPC   D2B28606   5.479  21.218   3.239  0.2397  0.2283  0.0834
    1DIPC   D3B28607   5.840  20.997   3.389 -0.1196  0.0669  0.0651
    1DIPC   C4B28608   5.877  20.936   3.844  0.3652  0.0931 -0.0026
    1DIPC   NC328609   6.498  16.212   2.677 -0.1758  0.1453  0.2050
    1DIPC   PO428610   6.587  16.618   2.596 -0.3372 -0.0539  0.2028
    1DIPC   GL128611   6.343  16.545   3.019  0.2845 -0.1047 -0.1381
    1DIPC   GL228612   6.380  16.233   3.156  0.0493 -0.0988 -0.2286
    1DIPC   C1A28613   5.977  16.852   3.128  0.1453  0.1461  0.0441
    1DIPC   D2A28614   5.588  17.132   3.026  0.1770 -0.2570  0.1646
    1DIPC   D3A28615   5.727  17.595   2.892  0.0619  0.2718 -0.0624
    1DIPC   C4A28616   5.780  17.914   3.197  0.2317  0.0121 -0.0816
    1DIPC   C1B28617   6.588  16.277   3.515 -0.0607 -0.0343 -0.1211
    1DIPC   D2B28618   6.582  16.010   3.868  0.0361 -0.2402  0.0163
    1DIPC   D3B28619   6.495  16.412   4.084  0.2803  0.1262 -0.2579
    1DIPC   C4B28620   6.875  16.465   4.429 -0.0531  0.0144  0.2335
    1DIPC   NC328621   1.368   6.152   2.823  0.0199 -0.1300  0.2647
    1DIPC   PO428622   1.206   6.511   2.616  0.0201 -0.1184  0.0963
    1DIPC   GL128623   1.179   6.736   2.995  0.2180 -0.2145  0.0566
    1DIPC   GL228624   1.196   7.068   3.045 -0.1866  0.1234  0.4428
    1DIPC   C1A28625   1.446   6.791   3.389  0.1911  0.0248 -0.1681
    1DIPC   D2A28626   1.677   6.517   3.829 -0.2080  0.3061  0.2335
    1DIPC   D3A28627   2.030   6.598   4.101  0.2037 -0.1031 -0.0095
    1DIPC   C4A28628   1.929   6.695   4.545 -0.2349 -0.0213 -0.3175
    1DIPC   C1B28629   0.955   7.182   3.448 -0.2210 -0.1248 -0.0729
    1DIPC   D2B28630   0.739   7.061   3.830 -0.0413  0.1187 -0.5596
    1DIPC   D3B28631   0.419   7.450   3.809 -0.0401  0.1411 -0.1605
    1DIPC   C4B28632   0.739   7.908   3.909 -0.1664 -0.1142  0.0198
    1DIPC   NC328633  27.818   5.775   2.645 -0.1103  0.3135  0.2902
    1DIPC   PO428634  28.045   6.021   2.786 -0.1062 -0.3329  0.2443
    1DIPC   GL128635  28.195   6.084   3.120  0.0717  0.2254 -0.3398
    1DIPC   GL228636  28.307   6.384   3.028 -0.1176  0.1324 -0.2658
    1DIPC   C1A28637  27.897   6.256   3.448 -0.0718  0.0555  0.0165
    1DIPC   D2A28638  28.055   6.601   3.750  0.3409  0.1958 -0.2174
    1DIPC   D3A28639  27.916   6.475   4.156  0.0534  0.0907 -0.0483
    1DIPC   C4A28640  27.597   6.194   4.081 -0.1166  0.3321  0.0285
    1DIPC   C1B28641  28.421   6.471   3.401  0.0264 -0.3526  0.1543
    1DIPC   D2B28642  28.504   6.853   3.750  0.0026 -0.0754  0.1237
    1DIPC   D3B28643  28.576   6.893   4.179  0.0184 -0.1994 -0.0068
    1DIPC   C4B28644  28.873   6.744   4.430  0.1372 -0.0111  0.4148
    1DIPC   NC328645   7.357  25.451   2.241 -0.1059  0.0674  0.1109
    1DIPC   PO428646   7.429  25.001   2.427 -0.0366  0.0882  0.0709
    1DIPC   GL128647   7.646  24.857   2.796 -0.1280 -0.2388 -0.0230
    1DIPC   GL228648   7.845  24.619   2.740  0.0854 -0.2845  0.2860
    1DIPC   C1A28649   7.811  24.846   3.248 -0.0843 -0.1848  0.0466
    1DIPC   D2A28650   8.181  25.067   3.468  0.3115  0.2384  0.1218
    1DIPC   D3A28651   7.751  25.066   3.745  0.1175 -0.0228 -0.1109
    1DIPC   C4A28652   7.584  25.530   3.744 -0.3825  0.1955  0.1247
    1DIPC   C1B28653   8.018  24.423   3.111  0.1003  0.1727  0.5317
    1DIPC   D2B28654   7.983  24.171   3.469  0.3583  0.1515 -0.0440
    1DIPC   D3B28655   8.174  24.600   3.549 -0.0224  0.0209  0.1436
    1DIPC   C4B28656   8.179  24.532   3.913 -0.0619 -0.3521  0.0817
    1DIPC   NC328657   8.741   4.527   3.379  0.2492 -0.0658 -0.2340
    1DIPC   PO428658   8.770   4.181   3.533 -0.1568  0.0956  0.0205
    1DIPC   GL128659   8.685   4.377   3.890 -0.3672  0.0109  0.2975
    1DIPC   GL228660   8.734   4.746   3.964 -0.0005 -0.1753 -0.0612
    1DIPC   C1A28661   8.779   4.347   4.361 -0.1833 -0.1790  0.1126
    1DIPC   D2A28662   8.833   4.748   4.529 -0.2690 -0.2063 -0.0034
    1DIPC   D3A28663   8.726   5.004   4.811  0.2286 -0.3057  0.1011
    1DIPC   C4A28664   8.889   5.329   5.040 -0.0904  0.1549 -0.0116
    1DIPC   C1B28665   9.012   5.010   4.168 -0.1823  0.0024  0.2705
    1DIPC   D2B28666   9.361   5.230   4.104  0.1007 -0.3257 -0.0537
    1DIPC   D3B28667   9.478   5.622   4.410  0.0760 -0.4129  0.0312
    1DIPC   C4B28668   9.260   5.590   4.793 -0.0588  0.2634 -0.1503
    1DIPC   NC328669  14.083   5.840   3.884 -0.1117 -0.0871 -0.1491
    1DIPC   PO428670  13.844   5.383   3.929 -0.1677 -0.1970  0.0204
    1DIPC   GL128671  13.817   5.441   4.350 -0.0015 -0.2102  0.0637
    1DIPC   GL228672  13.893   5.165   4.403 -0.0351 -0.0992  0.2269
    1DIPC   C1A28673  13.779   5.485   4.833  0.1683 -0.0888  0.1268
    1DIPC   D2A28674  13.970   5.261   5.201  0.1862 -0.2669  0.1376
    1DIPC   D3A28675  14.073   5.721   5.128  0.1637  0.1467  0.1758
    1DIPC   C4A28676  14.242   5.907   5.468  0.2386  0.0989 -0.0978
    1DIPC   C1B28677  13.485   4.949   4.678 -0.0583 -0.2875  0.1002
    1DIPC   D2B28678  13.646   4.775   5.037  0.2397  0.1953 -0.1414
    1DIPC   D3B28679  13.297   4.617   5.173  0.0724  0.2422  0.0442
    1DIPC   C4B28680  13.044   4.595   5.562  0.1182  0.3633 -0.1609
    1DIPC   NC328681   5.469  14.212   2.753  0.1668  0.0029  0.0014
    1DIPC   PO428682   5.338  13.809   2.963  0.1181  0.0777 -0.2579
    1DIPC   GL128683   5.276  13.727   3.410 -0.4451 -0.0301  0.2948
    1DIPC   GL228684   5.513  13.757   3.634 -0.1284  0.1535  0.0193
    1DIPC   C1A28685   5.063  13.398   3.632  0.0251 -0.0733  0.2845
    1DIPC   D2A28686   4.645  13.494   3.949  0.0105 -0.1333 -0.1363
    1DIPC   D3A28687   4.495  13.397   4.304  0.1212 -0.2142  0.1600
    1DIPC   C4A28688   4.745  13.106   4.574  0.2711  0.2110 -0.2362
    1DIPC   C1B28689   5.641  14.157   3.594 -0.1617  0.0436 -0.0221
    1DIPC   D2B28690   5.728  14.579   3.830 -0.1526  0.1315  0.3809
    1DIPC   D3B28691   5.228  14.538   3.717  0.1524  0.0100 -0.1248
    1DIPC   C4B28692   4.896  14.439   4.067 -0.1786  0.1705 -0.1034
    1DIPC   NC328693   4.141  23.231   1.618 -0.0784  0.1742 -0.2788
    1DIPC   PO428694   4.163  23.695   1.779  0.1618  0.0407 -0.0296
    1DIPC   GL128695   4.011  23.662   2.121  0.0358  0.2430  0.0899
    1DIPC   GL228696   4.313  23.877   2.221  0.0264  0.2011  0.1853
    1DIPC   C1A28697   3.738  23.622   2.433 -0.2379 -0.5357  0.0716
    1DIPC   D2A28698   3.606  23.666   2.870 -0.3114 -0.1545  0.1474
    1DIPC   D3A28699   3.668  23.977   2.898  0.1123 -0.0541  0.0205
    1DIPC   C4A28700   3.370  24.193   3.169  0.0043  0.2431 -0.0419
    1DIPC   C1B28701   4.158  23.811   2.754 -0.0182  0.2641 -0.1385
    1DIPC   D2B28702   4.040  23.881   3.251 -0.0909  0.3069  0.3771
    1DIPC   D3B28703   4.178  24.043   3.588 -0.0377  0.2501 -0.0751
    1DIPC   C4B28704   4.440  23.753   3.781 -0.3532 -0.3398  0.0019
    1DIPC   NC328705   2.455  19.952   0.977  0.0848 -0.2138 -0.1154
    1DIPC   PO428706   2.445  19.740   1.423 -0.1306  0.1459 -0.0936
    1DIPC   GL128707   2.540  19.651   1.826  0.0634 -0.1255 -0.0652
    1DIPC   GL228708   2.590  19.306   1.801  0.0270  0.2489  0.3548
    1DIPC   C1A28709   2.703  19.716   2.280  0.0394  0.1176  0.1077
    1DIPC   D2A28710   2.689  19.804   2.718 -0.0602 -0.0628 -0.1295
    1DIPC   D3A28711   2.333  20.101   2.626  0.0160 -0.1971  0.1064
    1DIPC   C4A28712   1.972  20.202   2.752  0.0077  0.0704 -0.0837
    1DIPC   C1B28713   2.728  19.231   2.196 -0.0597  0.0297  0.0257
    1DIPC   D2B28714   3.010  19.407   2.537  0.3351  0.1124  0.1445
    1DIPC   D3B28715   3.129  18.953   2.578 -0.1359  0.1766 -0.0699
    1DIPC   C4B28716   3.451  18.668   2.468 -0.1693 -0.1664 -0.4247
    1DIPC   NC328717  18.785  23.305   2.896 -0.0300 -0.0873  0.0472
    1DIPC   PO428718  19.146  23.121   2.940 -0.1619 -0.0560 -0.1709
    1DIPC   GL128719  19.080  23.043   3.318  0.1978  0.0200 -0.1926
    1DIPC   GL228720  18.805  23.059   3.369  0.0123  0.2873  0.0857
    1DIPC   C1A28721  19.127  23.072   3.756  0.0149  0.2209  0.3467
    1DIPC   D2A28722  18.844  23.004   4.076  0.2818 -0.0239  0.1938
    1DIPC   D3A28723  18.586  23.374   4.042  0.1575 -0.1689 -0.2745
    1DIPC   C4A28724  18.149  23.335   3.979 -0.2852  0.0387  0.1778
    1DIPC   C1B28725  18.515  22.945   3.690  0.2044  0.0626  0.3494
    1DIPC   D2B28726  18.354  22.766   4.047 -0.0787 -0.1111  0.0766
    1DIPC   D3B28727  18.409  23.073   4.408  0.0271 -0.1267 -0.0714
    1DIPC   C4B28728  18.207  22.810   4.865  0.2418 -0.2657  0.2045
    1DIPC   NC328729  29.338  14.237   1.824  0.0081 -0.0914 -0.0845
    1DIPC   PO428730  29.676  14.509   1.673  0.1326 -0.0555 -0.1197
    1DIPC   GL128731  29.565  14.702   2.046  0.1367  0.0858  0.0373
    1DIPC   GL228732  29.790  14.920   2.276 -0.0918 -0.0073  0.3248
    1DIPC   C1A28733  29.546  14.558   2.568 -0.2083 -0.0306  0.0335
    1DIPC   D2A28734  29.376  14.672   3.016 -0.1285  0.1869 -0.1253
    1DIPC   D3A28735  29.265  14.583   3.430  0.1985 -0.1550 -0.1896
    1DIPC   C4A28736  29.356  14.834   3.788 -0.2022 -0.2565 -0.0317
    1DIPC   C1B28737  29.865  15.231   2.519 -0.1370  0.3755  0.0485
    1DIPC   D2B28738  29.965  15.514   2.915 -0.1198 -0.1693 -0.0140
    1DIPC   D3B28739  29.668  15.524   3.358 -0.2918 -0.1750 -0.2263
    1DIPC   C4B28740  29.567  15.866   3.535 -0.0981 -0.2191  0.2372
    1DIPC   NC328741  25.960  29.352   3.030 -0.0718  0.0313  0.1157
    1DIPC   PO428742  25.527  29.280   3.040 -0.0806  0.1359  0.0996
    1DIPC   GL128743  25.530  29.375   3.468  0.1598 -0.2071  0.1645
    1DIPC   GL228744  25.850  29.407   3.551 -0.0314  0.0151 -0.0927
    1DIPC   C1A28745  25.335  29.587   3.761 -0.0201  0.0110  0.1132
    1DIPC   D2A28746  25.055  29.919   3.682  0.2201  0.0803 -0.0744
    1DIPC   D3A28747  25.423  30.234   3.608 -0.2864  0.0819 -0.0242
    1DIPC   C4A28748  25.711  30.231   3.338 -0.2399 -0.2180  0.2308
    1DIPC   C1B28749  25.791  29.266   3.969 -0.0923 -0.1634 -0.4031
    1DIPC   D2B28750  25.619  29.289   4.426  0.1028 -0.4011 -0.2073
    1DIPC   D3B28751  25.317  29.487   4.691  0.1278  0.1587 -0.3423
    1DIPC   C4B28752  25.319  29.360   5.156 -0.1866 -0.2650 -0.0666
    1DIPC   NC328753  27.580  25.099   2.128  0.3365  0.2904 -0.2923
    1DIPC   PO428754  27.794  24.732   2.363  0.1673 -0.1276 -0.0342
    1DIPC   GL128755  27.831  24.710   2.798 -0.3756 -0.2061  0.0252
    1DIPC   GL228756  28.069  24.679   3.099 -0.2633  0.4204  0.1183
    1DIPC   C1A28757  27.617  24.827   3.162  0.3682  0.0832  0.2037
    1DIPC   D2A28758  27.477  25.020   3.553  0.0257  0.3610 -0.0796
    1DIPC   D3A28759  27.762  24.975   3.961 -0.1875 -0.1450  0.0521
    1DIPC   C4A28760  27.527  25.191   4.273 -0.1420 -0.3795  0.0453
    1DIPC   C1B28761  27.975  24.670   3.539  0.3096 -0.3538 -0.0600
    1DIPC   D2B28762  27.829  24.446   3.973 -0.3807 -0.0703 -0.2598
    1DIPC   D3B28763  28.254  24.632   4.098 -0.0154 -0.1884 -0.1257
    1DIPC   C4B28764  28.436  24.551   4.560 -0.2079 -0.1961  0.1827
    1DIPC   NC328765  16.084  23.775   2.987 -0.2262  0.2086 -0.0842
    1DIPC   PO428766  15.708  23.829   2.800  0.1397 -0.0248 -0.1334
    1DIPC   GL128767  15.654  23.775   3.167  0.0492 -0.1128 -0.1918
    1DIPC   GL228768  15.390  23.872   3.304 -0.1243  0.0919 -0.0956
    1DIPC   C1A28769  15.808  23.739   3.572  0.0597  0.2872  0.2729
    1DIPC   D2A28770  15.908  23.550   3.942 -0.1034 -0.0130 -0.1125
    1DIPC   D3A28771  16.230  23.503   4.289  0.1724 -0.2025 -0.5758
    1DIPC   C4A28772  16.069  23.555   4.773  0.1964  0.1863 -0.1615
    1DIPC   C1B28773  15.288  23.454   3.529  0.0894 -0.1941  0.1283
    1DIPC   D2B28774  15.441  23.389   3.883  0.1927 -0.0747  0.1902
    1DIPC   D3B28775  15.133  23.321   4.129  0.1913  0.4607  0.2123
    1DIPC   C4B28776  15.199  22.909   4.299  0.1800  0.0183 -0.0020
    1DIPC   NC328777   1.600  28.880   3.504  0.1247 -0.0673  0.0176
    1DIPC   PO428778   2.021  28.753   3.719  0.0533  0.1728  0.0021
    1DIPC   GL128779   1.931  28.876   4.125  0.0774  0.0709 -0.1609
    1DIPC   GL228780   2.244  28.693   4.293 -0.0466 -0.2693  0.2429
    1DIPC   C1A28781   1.863  28.872   4.525  0.0258 -0.0131 -0.2146
    1DIPC   D2A28782   1.570  28.817   4.872 -0.1892 -0.0758  0.1469
    1DIPC   D3A28783   1.521  29.310   4.960  0.0038  0.1820  0.1195
    1DIPC   C4A28784   1.926  29.434   4.785  0.1433 -0.0329 -0.0541
    1DIPC   C1B28785   2.221  28.548   4.720 -0.0369  0.4103  0.0617
    1DIPC   D2B28786   1.939  28.400   5.083 -0.1767 -0.0343 -0.0542
    1DIPC   D3B28787   2.189  28.619   5.234 -0.2057 -0.3893  0.0283
    1DIPC   C4B28788   2.601  28.689   5.139  0.0956 -0.2525  0.1701
    1DIPC   NC328789   2.898  14.860   1.885  0.1947  0.1453 -0.0762
    1DIPC   PO428790   3.348  14.845   2.093 -0.2014 -0.1339 -0.1283
    1DIPC   GL128791   3.157  15.123   2.426  0.1884  0.0415 -0.0920
    1DIPC   GL228792   3.084  15.463   2.474  0.2903 -0.0237 -0.0161
    1DIPC   C1A28793   3.023  15.101   2.874 -0.0834  0.0461  0.0373
    1DIPC   D2A28794   3.156  15.266   3.209  0.1235  0.3636  0.1041
    1DIPC   D3A28795   2.863  15.386   3.552  0.2113 -0.0007 -0.1130
    1DIPC   C4A28796   2.841  15.076   3.869  0.1502 -0.0435 -0.0784
    1DIPC   C1B28797   3.099  15.612   2.873  0.1571 -0.2661  0.1943
    1DIPC   D2B28798   2.991  15.841   3.226 -0.1616 -0.1497  0.1438
    1DIPC   D3B28799   2.564  15.755   3.415  0.0365 -0.1545 -0.1969
    1DIPC   C4B28800   2.371  15.308   3.477 -0.0046  0.1675 -0.2228
    1DIPC   NC328801   6.579  25.660   1.677 -0.2081  0.1422 -0.4180
    1DIPC   PO428802   6.648  25.329   1.857 -0.3376  0.1024 -0.0597
    1DIPC   GL128803   6.881  25.414   2.394 -0.0901 -0.0278 -0.0741
    1DIPC   GL228804   6.910  25.718   2.527 -0.0362 -0.0310  0.0740
    1DIPC   C1A28805   6.968  25.272   2.887 -0.2928  0.0304  0.0022
    1DIPC   D2A28806   6.958  24.847   3.213 -0.1995 -0.1513  0.2918
    1DIPC   D3A28807   6.945  24.867   3.703  0.1311 -0.0708  0.3100
    1DIPC   C4A28808   7.124  25.267   3.761 -0.0824 -0.2451  0.0127
    1DIPC   C1B28809   6.910  25.922   2.975  0.1907  0.0672  0.0513
    1DIPC   D2B28810   7.280  26.237   3.092  0.0186  0.0566 -0.2848
    1DIPC   D3B28811   7.520  26.403   3.326 -0.3306  0.1823  0.0826
    1DIPC   C4B28812   7.645  26.642   3.696 -0.1501 -0.1340 -0.2989
    1DIPC   NC328813  21.304  22.793   2.889  0.0337 -0.1791  0.1889
    1DIPC   PO428814  21.701  22.689   3.095  0.1635 -0.0842  0.0196
    1DIPC   GL128815  21.764  22.703   3.516 -0.1205  0.4270  0.0778
    1DIPC   GL228816  21.393  22.729   3.510  0.1076 -0.0687 -0.4112
    1DIPC   C1A28817  21.814  22.712   3.889 -0.1031 -0.0643 -0.0929
    1DIPC   D2A28818  21.823  22.532   4.282 -0.0655  0.0281 -0.1561
    1DIPC   D3A28819  22.072  22.245   4.119 -0.2389 -0.0507  0.2553
    1DIPC   C4A28820  22.277  21.804   4.169  0.1439 -0.0998 -0.0584
    1DIPC   C1B28821  21.225  22.774   3.980  0.2115 -0.0187 -0.1516
    1DIPC   D2B28822  21.149  22.922   4.381 -0.3128 -0.0493 -0.0751
    1DIPC   D3B28823  21.643  23.025   4.307  0.0600  0.0111 -0.1533
    1DIPC   C4B28824  21.679  23.413   4.502 -0.0280 -0.0170  0.2578
    1DIPC   NC328825  24.453   1.456   2.942 -0.1162  0.1776  0.1387
    1DIPC   PO428826  24.057   1.272   2.996 -0.0443  0.2743  0.1914
    1DIPC   GL128827  24.334   1.361   3.436 -0.0275  0.2036 -0.1156
    1DIPC   GL228828  24.409   1.027   3.605  0.0887  0.1095 -0.0033
    1DIPC   C1A28829  24.423   1.553   3.743 -0.1866  0.0150  0.2275
    1DIPC   D2A28830  24.554   1.627   4.125  0.0716 -0.2256 -0.1160
    1DIPC   D3A28831  24.525   1.310   4.529 -0.1122  0.0308 -0.1537
    1DIPC   C4A28832  24.225   1.426   4.723 -0.0024 -0.0813  0.1724
    1DIPC   C1B28833  24.344   0.930   4.013  0.0244 -0.0340 -0.2304
    1DIPC   D2B28834  24.355   0.868   4.431  0.0824  0.1753  0.3737
    1DIPC   D3B28835  24.354   0.559   4.457 -0.0798 -0.0214 -0.1169
    1DIPC   C4B28836  24.816   0.374   4.601 -0.1412  0.1159 -0.3321
    1DIPC   NC328837  22.510  26.336   3.071 -0.0474  0.1507 -0.1775
    1DIPC   PO428838  22.208  26.260   3.338  0.1306  0.0941  0.1514
    1DIPC   GL128839  22.370  26.394   3.726 -0.0438  0.0350 -0.0771
    1DIPC   GL228840  22.616  26.476   3.674  0.1313 -0.1163 -0.0765
    1DIPC   C1A28841  22.250  26.599   4.078 -0.1903 -0.0087 -0.0642
    1DIPC   D2A28842  22.244  26.878   4.369  0.2457 -0.5472  0.0147
    1DIPC   D3A28843  21.781  26.933   4.580  0.0934  0.2281 -0.0814
    1DIPC   C4A28844  21.312  26.707   4.568  0.0761 -0.0399 -0.3203
    1DIPC   C1B28845  22.675  26.166   4.020 -0.2700  0.1258 -0.1744
    1DIPC   D2B28846  22.451  26.110   4.437 -0.0696  0.0249  0.1014
    1DIPC   D3B28847  22.148  26.336   4.504 -0.0668  0.2676 -0.0861
    1DIPC   C4B28848  21.847  26.440   4.770 -0.0099  0.1507 -0.5177
    1DIPC   NC328849  19.708   4.640   3.545 -0.1119 -0.0818 -0.0894
    1DIPC   PO428850  19.856   4.091   3.639  0.1670 -0.1330 -0.1057
    1DIPC   GL128851  19.815   3.889   3.963  0.0151  0.0995 -0.0595
    1DIPC   GL228852  20.030   4.002   4.151  0.1687  0.0807  0.0143
    1DIPC   C1A28853  19.555   3.994   4.424  0.2015  0.3468  0.2947
    1DIPC   D2A28854  19.359   4.190   4.783  0.0304 -0.3326 -0.1648
    1DIPC   D3A28855  19.075   3.996   4.871 -0.2211 -0.2903 -0.0241
    1DIPC   C4A28856  19.068   3.959   5.298  0.2156  0.1014 -0.1782
    1DIPC   C1B28857  20.134   3.818   4.623  0.0092  0.0506 -0.1783
    1DIPC   D2B28858  20.347   3.802   4.965 -0.3096 -0.2002 -0.2361
    1DIPC   D3B28859  20.851   3.689   4.884 -0.2260 -0.0516  0.0084
    1DIPC   C4B28860  21.182   3.497   5.172 -0.1586 -0.2654 -0.1365
    1DIPC   NC328861   7.280  28.246   3.311  0.0968 -0.0025  0.1420
    1DIPC   PO428862   6.867  28.269   3.181 -0.0818  0.2779  0.0181
    1DIPC   GL128863   6.601  28.053   3.543  0.0321  0.0034  0.4706
    1DIPC   GL228864   6.249  27.931   3.591 -0.1059 -0.0943  0.2672
    1DIPC   C1A28865   6.614  27.973   3.906  0.1900 -0.2542 -0.0900
    1DIPC   D2A28866   6.521  27.794   4.331  0.2050  0.0367 -0.0809
    1DIPC   D3A28867   6.474  27.500   4.881  0.0176 -0.0630 -0.0127
    1DIPC   C4A28868   6.134  27.304   4.995 -0.1974 -0.0114  0.2254
    1DIPC   C1B28869   6.339  27.547   3.877 -0.3283 -0.0539  0.2381
    1DIPC   D2B28870   6.490  27.124   3.792 -0.3864 -0.1654 -0.0180
    1DIPC   D3B28871   6.339  26.911   4.093 -0.1450 -0.0680 -0.1557
    1DIPC   C4B28872   6.274  26.962   4.669 -0.0565  0.2462  0.2958
    1DIPC   NC328873   9.491   6.423   3.495 -0.1914 -0.3845 -0.1720
    1DIPC   PO428874   9.129   6.411   3.233  0.3360 -0.0935 -0.0545
    1DIPC   GL128875   9.007   6.369   3.616 -0.4453 -0.1971  0.0007
    1DIPC   GL228876   8.787   6.644   3.906  0.0833 -0.0824  0.1497
    1DIPC   C1A28877   9.227   6.301   4.029  0.0453 -0.2423 -0.0691
    1DIPC   D2A28878   9.152   6.099   4.354 -0.1827  0.0156 -0.2029
    1DIPC   D3A28879   9.214   6.046   4.803  0.1148 -0.0686 -0.0140
    1DIPC   C4A28880   8.875   5.884   4.982 -0.0249 -0.1627  0.0486
    1DIPC   C1B28881   8.843   6.601   4.299  0.0375  0.0393 -0.2476
    1DIPC   D2B28882   9.024   6.519   4.642  0.1508 -0.1622  0.3387
    1DIPC   D3B28883   8.774   6.726   4.974  0.0733 -0.2172 -0.1112
    1DIPC   C4B28884   8.493   7.043   5.036 -0.2652  0.1481  0.1963
    1DIPC   NC328885  10.990   1.959   3.834  0.1704  0.0165 -0.1197
    1DIPC   PO428886  10.609   1.766   3.642 -0.0377 -0.0312 -0.0685
    1DIPC   GL128887  10.649   1.677   4.097  0.0368  0.0336  0.1580
    1DIPC   GL228888  10.863   1.598   4.264 -0.0802  0.0257 -0.0572
    1DIPC   C1A28889  10.448   1.576   4.501 -0.0966  0.3097  0.0421
    1DIPC   D2A28890  10.231   1.434   4.903 -0.1367 -0.3907 -0.1905
    1DIPC   D3A28891  10.497   1.312   5.126  0.0022 -0.2004 -0.0772
    1DIPC   C4A28892  10.183   1.067   5.333 -0.3258  0.1033 -0.0211
    1DIPC   C1B28893  10.956   1.553   4.811 -0.1346  0.1231  0.0899
    1DIPC   D2B28894  10.797   1.664   5.226  0.2214  0.0516  0.1537
    1DIPC   D3B28895  10.404   1.848   5.145 -0.2626  0.0166 -0.1325
    1DIPC   C4B28896  10.169   2.149   5.311 -0.1109 -0.0340 -0.0152
    1DIPC   NC328897  23.429   8.529   2.297 -0.0274 -0.0753  0.1018
    1DIPC   PO428898  23.232   8.583   2.661  0.2988  0.0855  0.1556
    1DIPC   GL128899  23.366   8.402   3.109 -0.1606  0.2518 -0.2547
    1DIPC   GL228900  23.714   8.261   3.187  0.3699  0.1006  0.0854
    1DIPC   C1A28901  23.210   8.119   3.436  0.0299  0.3127  0.1042
    1DIPC   D2A28902  23.171   7.886   3.845 -0.4025  0.1327 -0.1881
    1DIPC   D3A28903  23.457   7.746   4.195  0.2285 -0.3062  0.0092
    1DIPC   C4A28904  23.863   7.771   4.119  0.0145  0.3061 -0.0196
    1DIPC   C1B28905  23.567   8.344   3.603  0.0800 -0.2257  0.0735
    1DIPC   D2B28906  23.517   8.672   3.867 -0.3211  0.0327  0.2926
    1DIPC   D3B28907  23.346   9.075   3.790 -0.1566  0.2373  0.1627
    1DIPC   C4B28908  23.471   9.305   3.457  0.0519 -0.0619  0.0184
    1DIPC   NC328909   9.136   1.275   2.651  0.1998  0.1112  0.0380
    1DIPC   PO428910   9.031   1.593   3.079 -0.0807 -0.0426 -0.0342
    1DIPC   GL128911   9.131   1.666   3.551 -0.0988 -0.0787 -0.3684
    1DIPC   GL228912   9.391   1.778   3.721 -0.0699 -0.1109 -0.2679
    1DIPC   C1A28913   8.966   1.811   3.930  0.1328 -0.1242  0.0464
    1DIPC   D2A28914   8.858   1.893   4.332  0.0483  0.2942 -0.3194
    1DIPC   D3A28915   9.236   2.164   4.442  0.1262 -0.0587 -0.4189
    1DIPC   C4A28916   9.055   2.267   4.893  0.3837  0.1546  0.2718
    1DIPC   C1B28917   9.383   1.780   4.165 -0.5706  0.1119  0.3599
    1DIPC   D2B28918   9.293   1.737   4.650  0.0634 -0.0910  0.1849
    1DIPC   D3B28919   9.447   1.967   4.907 -0.0444 -0.2619 -0.1728
    1DIPC   C4B28920   9.838   1.780   5.027  0.0991  0.0136 -0.3543
    1DIPC   NC328921   7.445   2.276   3.054  0.1939 -0.1367  0.0324
    1DIPC   PO428922   7.391   2.143   3.444 -0.0058 -0.0294 -0.2812
    1DIPC   GL128923   7.202   1.956   3.842 -0.0321  0.0019 -0.2671
    1DIPC   GL228924   7.195   1.741   3.788 -0.3070 -0.0381  0.0171
    1DIPC   C1A28925   7.210   1.872   4.330 -0.2946  0.0264  0.1019
    1DIPC   D2A28926   7.142   2.224   4.715 -0.0336  0.0867  0.0873
    1DIPC   D3A28927   7.464   2.476   4.809 -0.1946 -0.1608 -0.0417
    1DIPC   C4A28928   7.674   2.529   5.202  0.1450  0.5457  0.1921
    1DIPC   C1B28929   7.608   1.660   4.061  0.0607  0.3056 -0.0119
    1DIPC   D2B28930   7.914   1.650   4.304 -0.1120 -0.1594 -0.0055
    1DIPC   D3B28931   8.219   1.949   4.728 -0.3031 -0.2864  0.1944
    1DIPC   C4B28932   7.953   2.189   5.008  0.1242  0.0384 -0.1307
    1DIPC   NC328933  29.653   8.840   2.249  0.3129 -0.0057 -0.1042
    1DIPC   PO428934  29.816   8.796   2.577 -0.1744  0.2153  0.0683
    1DIPC   GL128935  29.528   8.770   2.897  0.2680  0.1289  0.4173
    1DIPC   GL228936  29.696   8.521   3.099 -0.0544  0.0414  0.1306
    1DIPC   C1A28937  29.415   9.148   3.087 -0.0652 -0.1115 -0.1908
    1DIPC   D2A28938  29.288   9.313   3.495  0.2576 -0.2527  0.1479
    1DIPC   D3A28939  28.971   9.412   3.378  0.1199 -0.0542 -0.1499
    1DIPC   C4A28940  28.776   9.294   3.064 -0.1988  0.1926 -0.1679
    1DIPC   C1B28941  29.823   8.797   3.516  0.1449  0.2038  0.1040
    1DIPC   D2B28942  29.536   9.017   3.864  0.2335  0.1968  0.1798
    1DIPC   D3B28943  29.251   9.264   4.033 -0.1465  0.4446  0.1027
    1DIPC   C4B28944  29.237   9.187   4.372 -0.0474  0.1698 -0.0426
    1DIPC   NC328945  20.979   9.939   1.759  0.1421  0.5253 -0.1311
    1DIPC   PO428946  21.128   9.483   1.978  0.1997 -0.3049 -0.1199
    1DIPC   GL128947  21.183   9.557   2.476  0.1086  0.0859 -0.1343
    1DIPC   GL228948  21.364   9.316   2.563  0.1595  0.2025 -0.2179
    1DIPC   C1A28949  21.137   9.739   2.904  0.3950 -0.2270 -0.1569
    1DIPC   D2A28950  21.027   9.979   3.114 -0.1015  0.0347 -0.2328
    1DIPC   D3A28951  21.372  10.167   3.418 -0.0282  0.1711  0.0606
    1DIPC   C4A28952  21.335  10.137   3.827  0.1382  0.0222 -0.0352
    1DIPC   C1B28953  21.512   9.443   2.976  0.4623 -0.0957  0.1220
    1DIPC   D2B28954  21.569   9.839   3.157  0.1987  0.0100  0.1682
    1DIPC   D3B28955  21.853  10.025   3.405 -0.1815 -0.0472 -0.0713
    1DIPC   C4B28956  21.840  10.419   3.598 -0.1923  0.0940  0.0520
    1DIPC   NC328957  19.834   0.622   3.018 -0.1515 -0.0495 -0.0143
    1DIPC   PO428958  20.237   0.547   2.916 -0.2419  0.3125  0.1591
    1DIPC   GL128959  20.461   0.667   3.188 -0.2286 -0.1657  0.1013
    1DIPC   GL228960  20.127   0.605   3.359  0.2235 -0.1333 -0.4629
    1DIPC   C1A28961  20.720   0.718   3.532  0.0200 -0.0675 -0.1685
    1DIPC   D2A28962  21.024   0.595   3.816 -0.0450 -0.3052  0.1066
    1DIPC   D3A28963  20.738   0.478   4.102 -0.0087 -0.4914  0.2177
    1DIPC   C4A28964  20.942   0.533   4.435  0.0293 -0.0470 -0.0040
    1DIPC   C1B28965  20.369   0.380   3.585 -0.1667  0.1833  0.0866
    1DIPC   D2B28966  20.234   0.135   3.896  0.1671 -0.1057  0.1522
    1DIPC   D3B28967  20.312  -0.129   4.218  0.0527 -0.2809  0.0650
    1DIPC   C4B28968  20.462  -0.457   4.081  0.2198  0.2430 -0.4862
    1DIPC   NC328969   3.103  20.985   1.549 -0.2073  0.0635 -0.1861
    1DIPC   PO428970   3.188  21.418   1.483  0.2191  0.0311 -0.0000
    1DIPC   GL128971   3.267  21.317   1.931  0.0991 -0.0075 -0.1129
    1DIPC   GL228972   3.118  21.459   2.288  0.0817 -0.1194 -0.0689
    1DIPC   C1A28973   3.190  20.951   2.261 -0.2992  0.0650 -0.1714
    1DIPC   D2A28974   3.307  20.510   2.605 -0.0680 -0.1299 -0.0320
    1DIPC   D3A28975   3.633  20.223   2.506  0.3335 -0.1867 -0.0121
    1DIPC   C4A28976   3.912  20.216   1.985 -0.2791  0.1744 -0.0164
    1DIPC   C1B28977   3.240  21.290   2.628  0.2063  0.1160  0.2125
    1DIPC   D2B28978   3.452  20.992   2.866 -0.5300 -0.4330 -0.2312
    1DIPC   D3B28979   3.707  20.889   2.602  0.0975  0.3168  0.0640
    1DIPC   C4B28980   4.038  21.043   2.771 -0.1919 -0.1604 -0.4678
    1DIPC   NC328981   0.708   5.420   3.003  0.1272 -0.1523  0.1265
    1DIPC   PO428982   0.832   4.951   3.255  0.0649  0.0591  0.0423
    1DIPC   GL128983   0.766   4.699   3.633 -0.0435  0.0594  0.3783
    1DIPC   GL228984   0.918   4.377   3.661 -0.1399 -0.1149  0.1798
    1DIPC   C1A28985   0.863   4.885   4.163  0.2241  0.0267  0.0907
    1DIPC   D2A28986   1.022   4.995   4.452 -0.0196  0.2652 -0.1437
    1DIPC   D3A28987   0.865   4.782   4.724 -0.1429  0.1818  0.1459
    1DIPC   C4A28988   0.586   4.547   4.556 -0.1667 -0.0739 -0.2799
    1DIPC   C1B28989   0.794   4.368   4.101 -0.1139  0.1911  0.2521
    1DIPC   D2B28990   1.120   4.424   4.474  0.0296  0.1047 -0.0912
    1DIPC   D3B28991   1.380   4.665   4.145  0.0127  0.1874 -0.1841
    1DIPC   C4B28992   1.876   4.825   4.117  0.1858 -0.3288 -0.4993
    1DIPC   NC328993  17.156   9.025   2.944 -0.0627  0.0773 -0.0513
    1DIPC   PO428994  17.496   8.636   2.888 -0.2312 -0.1520  0.1093
    1DIPC   GL128995  17.541   8.777   3.241  0.4557 -0.0635 -0.3070
    1DIPC   GL228996  17.302   8.939   3.413 -0.2219 -0.2345  0.2395
    1DIPC   C1A28997  17.788   8.754   3.627 -0.4186 -0.2180  0.0433
    1DIPC   D2A28998  17.653   8.876   4.092 -0.0389  0.1745 -0.0458
    1DIPC   D3A28999  17.896   9.160   3.980 -0.0701 -0.1577  0.0561
    1DIPC   C4A29000  18.190   9.112   4.338 -0.2897  0.0491 -0.0033
    1DIPC   C1B29001  16.950   9.173   3.580  0.1403 -0.0211  0.0480
    1DIPC   D2B29002  16.764   9.426   3.924  0.0897  0.1129  0.0388
    1DIPC   D3B29003  16.878   9.829   4.134 -0.0250 -0.1554  0.1500
    1DIPC   C4B29004  16.827   9.897   4.495 -0.2059 -0.1823 -0.0419
    1DIPC   NC329005  26.969  25.227   2.860 -0.0880  0.3061  0.3227
    1DIPC   PO429006  27.127  25.565   2.960  0.4227 -0.1657  0.1793
    1DIPC   GL129007  27.391  25.695   3.380  0.0632  0.0665  0.0056
    1DIPC   GL229008  27.771  25.624   3.315  0.0633 -0.0814  0.1231
    1DIPC   C1A29009  27.272  25.837   3.765 -0.0449 -0.1140  0.2206
    1DIPC   D2A29010  27.471  26.134   4.036  0.0987  0.0797  0.2771
    1DIPC   D3A29011  27.633  25.752   4.173 -0.1566  0.0976 -0.0811
    1DIPC   C4A29012  27.767  25.502   3.851  0.0279  0.1732 -0.0929
    1DIPC   C1B29013  28.201  25.619   3.626  0.1585  0.1451  0.1980
    1DIPC   D2B29014  28.517  25.396   3.775  0.3058 -0.0998 -0.1966
    1DIPC   D3B29015  28.744  25.490   4.145  0.0048 -0.1547 -0.0467
    1DIPC   C4B29016  28.580  25.788   4.426 -0.1019 -0.0048  0.0381
    1DIPC   NC329017   2.722  27.654   3.323 -0.1530  0.1337 -0.2925
    1DIPC   PO429018   2.559  27.218   3.372 -0.0694 -0.1335 -0.0329
    1DIPC   GL129019   2.470  27.252   3.856  0.0628 -0.3141  0.1520
    1DIPC   GL229020   2.431  26.983   4.051  0.0644  0.0752 -0.0034
    1DIPC   C1A29021   2.924  27.289   4.005  0.1664  0.3839  0.0056
    1DIPC   D2A29022   3.181  26.981   4.182  0.4618 -0.1162 -0.0022
    1DIPC   D3A29023   3.453  27.310   4.143 -0.0082 -0.0632  0.0307
    1DIPC   C4A29024   3.821  27.261   4.407 -0.0174 -0.0751 -0.0843
    1DIPC   C1B29025   2.138  26.761   4.274  0.0248 -0.0705 -0.1754
    1DIPC   D2B29026   2.084  26.500   4.654  0.3169  0.0118  0.3908
    1DIPC   D3B29027   2.097  26.547   5.123  0.1872 -0.0286  0.2891
    1DIPC   C4B29028   1.770  26.767   5.449  0.1475 -0.1449  0.0216
    1DIPC   NC329029  11.210   8.130   3.715  0.1858  0.0418 -0.2007
    1DIPC   PO429030  11.619   8.404   3.733 -0.0011  0.0222 -0.0604
    1DIPC   GL129031  11.650   8.301   4.144 -0.1142  0.0331  0.0567
    1DIPC   GL229032  11.977   8.137   4.124  0.0372  0.0154 -0.1149
    1DIPC   C1A29033  11.460   8.067   4.402 -0.0986 -0.3148 -0.2487
    1DIPC   D2A29034  11.485   7.871   4.845 -0.2905  0.3768 -0.3498
    1DIPC   D3A29035  11.107   7.686   5.072  0.4425  0.2514  0.1182
    1DIPC   C4A29036  10.751   7.422   5.162  0.0557 -0.1801 -0.1017
    1DIPC   C1B29037  11.931   8.172   4.630  0.1387 -0.1803  0.1431
    1DIPC   D2B29038  12.038   8.252   4.973 -0.0068  0.1250  0.0464
    1DIPC   D3B29039  11.830   8.552   5.258 -0.0953  0.5276  0.0570
    1DIPC   C4B29040  12.211   8.664   5.449 -0.1748 -0.2272  0.0606
    1DIPC   NC329041  28.163   7.830   2.130  0.0996  0.1163 -0.1973
    1DIPC   PO429042  28.716   7.721   2.240 -0.4583 -0.1079 -0.0945
    1DIPC   GL129043  28.493   7.944   2.481 -0.2330  0.2134  0.0074
    1DIPC   GL229044  28.372   7.830   2.671  0.1606 -0.0002 -0.0859
    1DIPC   C1A29045  28.404   8.325   2.848  0.1330 -0.0895  0.1458
    1DIPC   D2A29046  28.318   8.523   3.270  0.1797  0.1076  0.2420
    1DIPC   D3A29047  28.686   8.842   3.243  0.0262 -0.0201  0.0929
    1DIPC   C4A29048  28.960   8.960   3.612  0.0264 -0.1387  0.2213
    1DIPC   C1B29049  28.020   7.891   2.907  0.0661  0.1415  0.2705
    1DIPC   D2B29050  27.636   7.855   3.168 -0.0256 -0.1672  0.0013
    1DIPC   D3B29051  27.671   7.435   3.068  0.1722  0.2812 -0.0833
    1DIPC   C4B29052  27.580   7.070   3.324  0.0274  0.3864  0.2956
    1DIPC   NC329053   3.419  16.205   1.761 -0.1987  0.0525  0.0372
    1DIPC   PO429054   3.217  16.055   2.043 -0.0248  0.0923 -0.1673
    1DIPC   GL129055   3.053  16.354   2.318 -0.2046 -0.0522 -0.1966
    1DIPC   GL229056   2.871  16.501   2.255 -0.1752  0.0373 -0.0195
    1DIPC   C1A29057   3.266  16.533   2.625  0.0028 -0.0890  0.1255
    1DIPC   D2A29058   3.514  16.873   2.875 -0.1735 -0.0370 -0.0244
    1DIPC   D3A29059   3.679  16.401   2.885  0.0425 -0.0441  0.0229
    1DIPC   C4A29060   3.723  16.129   3.275 -0.3237  0.2433 -0.2282
    1DIPC   C1B29061   2.766  16.462   2.739 -0.0650  0.0179 -0.1620
    1DIPC   D2B29062   2.705  16.205   3.155  0.1154 -0.0554 -0.1141
    1DIPC   D3B29063   2.812  16.400   3.575  0.0519 -0.1511  0.0047
    1DIPC   C4B29064   3.060  16.863   3.467 -0.0479  0.2994 -0.2588
    1DIPC   NC329065  22.132   3.027   2.998 -0.0247  0.0336 -0.0837
    1DIPC   PO429066  22.161   3.397   3.042  0.1974  0.0507 -0.3142
    1DIPC   GL129067  22.375   3.659   3.252 -0.2299 -0.1637 -0.0750
    1DIPC   GL229068  22.170   3.573   3.509 -0.2342  0.4941  0.0577
    1DIPC   C1A29069  22.642   3.646   3.643 -0.0117 -0.1603 -0.2029
    1DIPC   D2A29070  22.826   3.324   3.899  0.1772  0.1655 -0.1349
    1DIPC   D3A29071  22.718   3.740   4.199 -0.0622  0.0711  0.0310
    1DIPC   C4A29072  23.081   4.119   4.335  0.2512 -0.0395 -0.2997
    1DIPC   C1B29073  22.327   3.980   3.854 -0.1980  0.3096  0.0633
    1DIPC   D2B29074  22.060   4.276   4.013 -0.1589 -0.0016 -0.0573
    1DIPC   D3B29075  22.531   4.347   4.213  0.1496 -0.1842 -0.0867
    1DIPC   C4B29076  22.684   4.591   4.651 -0.1117 -0.0065  0.0266
    1DIPC   NC329077  29.601   1.404   3.145 -0.4833  0.0370 -0.1621
    1DIPC   PO429078  29.853   0.945   3.011 -0.1847 -0.0316 -0.1535
    1DIPC   GL129079  29.719   1.006   3.484  0.1789 -0.0325  0.1062
    1DIPC   GL229080  29.808   0.890   3.815 -0.0059  0.2007 -0.1353
    1DIPC   C1A29081  29.741   1.365   3.756 -0.1599 -0.0366 -0.1338
    1DIPC   D2A29082  29.514   1.693   3.861 -0.2947 -0.0655 -0.0814
    1DIPC   D3A29083  29.436   1.553   4.265 -0.0784 -0.2113 -0.1133
    1DIPC   C4A29084  29.312   1.755   4.673  0.0330 -0.1672 -0.0074
    1DIPC   C1B29085  29.466   1.013   4.088  0.0839 -0.2390  0.1093
    1DIPC   D2B29086  29.258   1.038   4.451  0.0935  0.4586 -0.0072
    1DIPC   D3B29087  29.637   1.093   4.703 -0.1103 -0.2109 -0.2447
    1DIPC   C4B29088  29.823   1.524   4.632 -0.0181  0.1480  0.0240
    1DIPC   NC329089  14.299  28.704   3.384  0.2441 -0.3969 -0.1582
    1DIPC   PO429090  14.264  28.284   3.177 -0.1853  0.0621 -0.2799
    1DIPC   GL129091  14.564  28.351   3.535  0.1513  0.0477 -0.0755
    1DIPC   GL229092  14.474  28.095   3.685  0.0542  0.2042  0.1288
    1DIPC   C1A29093  14.684  28.566   3.931  0.2871  0.1338  0.1158
    1DIPC   D2A29094  14.698  28.935   4.101  0.3421 -0.1463  0.1690
    1DIPC   D3A29095  14.859  28.708   4.487  0.0699  0.0443 -0.0682
    1DIPC   C4A29096  14.897  28.390   4.632 -0.1006  0.5153  0.1580
    1DIPC   C1B29097  14.565  28.169   4.234 -0.2315  0.0674 -0.0789
    1DIPC   D2B29098  14.538  28.084   4.676  0.2974  0.3058 -0.1601
    1DIPC   D3B29099  14.447  28.486   4.833 -0.1931  0.1592 -0.1045
    1DIPC   C4B29100  14.704  28.621   5.086 -0.1848  0.1846 -0.0437
    1DIPC   NC329101  22.709  28.537   3.141 -0.2497  0.2169 -0.0122
    1DIPC   PO429102  22.690  28.165   3.282  0.0699  0.1853  0.1956
    1DIPC   GL129103  22.527  28.284   3.632  0.0296 -0.0415 -0.3407
    1DIPC   GL229104  22.416  28.611   3.553 -0.2776 -0.0168  0.1364
    1DIPC   C1A29105  22.090  28.140   3.701 -0.1187 -0.1164  0.0183
    1DIPC   D2A29106  21.737  28.057   3.966  0.0308  0.0736  0.3386
    1DIPC   D3A29107  22.119  27.885   4.251  0.0678  0.0398  0.1273
    1DIPC   C4A29108  22.517  27.870   4.027 -0.0886  0.0937 -0.2038
    1DIPC   C1B29109  22.272  28.483   4.016  0.0913  0.3495  0.0774
    1DIPC   D2B29110  22.093  28.794   4.327  0.1604  0.1868  0.1991
    1DIPC   D3B29111  21.888  29.081   4.642 -0.0722  0.1292  0.3012
    1DIPC   C4B29112  21.446  29.051   4.458 -0.1491  0.1509  0.1787
    1DIPC   NC329113   7.755   6.758   3.473  0.1621 -0.0502  0.0099
    1DIPC   PO429114   8.033   6.589   3.282 -0.1511  0.1440 -0.2928
    1DIPC   GL129115   8.320   6.647   3.690 -0.1737  0.0608  0.1476
    1DIPC   GL229116   8.437   6.314   3.704  0.1309  0.1512  0.0077
    1DIPC   C1A29117   8.168   6.717   4.015  0.0630  0.2228 -0.2262
    1DIPC   D2A29118   8.183   6.683   4.429 -0.0124  0.0910  0.1590
    1DIPC   D3A29119   8.183   6.301   4.524  0.2057 -0.0579  0.0379
    1DIPC   C4A29120   8.637   6.233   4.729  0.1100  0.1009  0.3040
    1DIPC   C1B29121   8.454   6.268   4.100 -0.2145 -0.0796  0.1995
    1DIPC   D2B29122   8.676   5.909   4.374  0.3043 -0.1307  0.0826
    1DIPC   D3B29123   8.415   5.663   4.512 -0.0914 -0.0569  0.1413
    1DIPC   C4B29124   8.443   5.498   4.954 -0.2642  0.2548  0.0045
    1DIPC   NC329125  24.292  28.753   3.614  0.0851  0.2652 -0.0859
    1DIPC   PO429126  23.938  28.529   3.685  0.1126 -0.2684 -0.0088
    1DIPC   GL129127  24.015  28.229   3.971 -0.0115  0.2456 -0.0661
    1DIPC   GL229128  24.368  28.320   4.002 -0.1205  0.1253 -0.2951
    1DIPC   C1A29129  24.088  28.089   4.457 -0.1107  0.0381 -0.0880
    1DIPC   D2A29130  24.186  27.964   4.896  0.2613  0.1301 -0.1576
    1DIPC   D3A29131  23.707  28.053   4.814  0.0755  0.0304  0.2316
    1DIPC   C4A29132  23.587  27.839   4.574  0.2087  0.0059 -0.0174
    1DIPC   C1B29133  24.341  28.520   4.285  0.2159 -0.2080  0.0789
    1DIPC   D2B29134  24.069  28.887   4.079  0.3897  0.2609 -0.2838
    1DIPC   D3B29135  24.179  28.941   4.510 -0.0235 -0.0014  0.2694
    1DIPC   C4B29136  23.977  29.000   4.840 -0.2248  0.0764 -0.0981
    1DIPC   NC329137  22.570   8.378   2.559 -0.0075 -0.0441 -0.0907
    1DIPC   PO429138  22.593   8.763   2.577 -0.0135  0.2086 -0.0837
    1DIPC   GL129139  22.463   8.893   2.943 -0.2476 -0.0196 -0.2140
    1DIPC   GL229140  22.445   8.651   3.021 -0.2515 -0.1346  0.0647
    1DIPC   C1A29141  22.645   9.091   3.324 -0.2369  0.1251 -0.1747
    1DIPC   D2A29142  22.911   9.127   3.600  0.0990  0.0128  0.0003
    1DIPC   D3A29143  22.562   9.049   3.893  0.0192  0.1095  0.0754
    1DIPC   C4A29144  22.511   8.741   4.298 -0.1554 -0.1204  0.2068
    1DIPC   C1B29145  22.076   9.013   3.170  0.0465 -0.0587 -0.0764
    1DIPC   D2B29146  21.755   8.794   3.304  0.0451 -0.0464  0.1236
    1DIPC   D3B29147  21.717   9.098   3.589 -0.1633  0.0818  0.0175
    1DIPC   C4B29148  22.204   9.195   3.608  0.0603  0.0109 -0.1624
    1DIPC   NC329149   7.842  27.420   3.346 -0.2567  0.2956  0.1516
    1DIPC   PO429150   7.446  27.591   3.439 -0.1311  0.0124  0.0973
    1DIPC   GL129151   7.436  27.650   3.874 -0.0291 -0.1377  0.3155
    1DIPC   GL229152   7.624  27.351   4.111  0.0204 -0.1849  0.3726
    1DIPC   C1A29153   7.536  27.726   4.385 -0.1754 -0.1925  0.0893
    1DIPC   D2A29154   7.653  28.117   4.626 -0.0844  0.2225 -0.0082
    1DIPC   D3A29155   7.286  28.341   4.508  0.5172 -0.0111  0.1791
    1DIPC   C4A29156   7.160  28.304   4.950 -0.0332 -0.2706 -0.1747
    1DIPC   C1B29157   7.464  27.177   4.453 -0.1144 -0.0938 -0.0660
    1DIPC   D2B29158   7.111  27.180   4.597  0.3338 -0.3036  0.1479
    1DIPC   D3B29159   7.215  27.089   4.997 -0.2345 -0.3199 -0.0318
    1DIPC   C4B29160   7.373  26.690   5.069  0.0047 -0.0790  0.1275
    1DIPC   NC329161  29.291  21.058   2.505  0.0283  0.4599 -0.1381
    1DIPC   PO429162  29.612  21.230   2.317 -0.3051 -0.0533 -0.2345
    1DIPC   GL129163  29.715  21.130   2.789 -0.2296 -0.2302  0.0075
    1DIPC   GL229164  29.517  21.238   2.933  0.0439 -0.1090  0.0403
    1DIPC   C1A29165  29.852  21.027   3.199 -0.0790  0.0362  0.3272
    1DIPC   D2A29166  29.860  20.853   3.717 -0.0783  0.2227 -0.0677
    1DIPC   D3A29167  30.161  21.058   4.001 -0.0302  0.1123 -0.0878
    1DIPC   C4A29168  29.941  21.345   4.186  0.1757 -0.0827  0.5222
    1DIPC   C1B29169  29.341  21.016   3.373  0.0295 -0.0594  0.1635
    1DIPC   D2B29170  29.246  20.914   3.833 -0.0889 -0.1627  0.2113
    1DIPC   D3B29171  29.500  21.227   3.798  0.0761 -0.1981  0.0361
    1DIPC   C4B29172  29.899  21.348   3.603  0.1205 -0.2447  0.0281
    1DIPC   NC329173   1.363  11.406   2.438  0.1736  0.1174 -0.1077
    1DIPC   PO429174   1.667  11.632   2.330  0.1628  0.0653  0.2540
    1DIPC   GL129175   1.588  11.767   2.741  0.2506  0.3258  0.1538
    1DIPC   GL229176   1.608  12.039   2.882 -0.1689 -0.2308 -0.4686
    1DIPC   C1A29177   1.875  11.874   3.234 -0.0141 -0.0030  0.0774
    1DIPC   D2A29178   2.132  12.181   3.554 -0.2603  0.1546  0.3315
    1DIPC   D3A29179   2.029  11.784   3.950 -0.1022  0.1426  0.1442
    1DIPC   C4A29180   2.086  11.732   4.401 -0.0823 -0.0610 -0.0441
    1DIPC   C1B29181   1.466  12.399   3.164 -0.0389  0.1760  0.2406
    1DIPC   D2B29182   1.381  12.802   3.359  0.1823 -0.1478 -0.1882
    1DIPC   D3B29183   1.067  12.678   3.616 -0.0462 -0.1624  0.1713
    1DIPC   C4B29184   0.998  12.299   3.731  0.2102  0.1187 -0.0729
    1DIPC   NC329185  19.156   5.030   3.075 -0.0234 -0.0642  0.2270
    1DIPC   PO429186  19.215   4.728   3.392 -0.1283 -0.0003 -0.0902
    1DIPC   GL129187  19.343   4.400   3.781 -0.0456  0.1363  0.1982
    1DIPC   GL229188  19.667   4.356   3.995  0.0279  0.0294  0.1591
    1DIPC   C1A29189  19.243   4.102   4.036  0.2835 -0.1226  0.0169
    1DIPC   D2A29190  19.102   3.832   4.410 -0.5254 -0.0789  0.1928
    1DIPC   D3A29191  19.316   3.630   4.697 -0.1697  0.2891  0.1737
    1DIPC   C4A29192  19.699   3.644   4.863  0.1237 -0.2253  0.1417
    1DIPC   C1B29193  19.816   4.433   4.345 -0.0597  0.0654  0.1029
    1DIPC   D2B29194  19.840   4.643   4.724  0.1112 -0.0785 -0.0254
    1DIPC   D3B29195  19.456   4.688   4.853 -0.0315 -0.2259 -0.2837
    1DIPC   C4B29196  19.478   4.496   5.318 -0.0458 -0.4286  0.2036
    1DIPC   NC329197  18.589  29.658   3.151 -0.1698  0.0053 -0.0809
    1DIPC   PO429198  18.325  29.353   2.949  0.1043 -0.5257  0.0642
    1DIPC   GL129199  18.369  29.165   3.360  0.1884 -0.0010 -0.1316
    1DIPC   GL229200  18.036  29.390   3.525 -0.0982  0.0134 -0.3074
    1DIPC   C1A29201  18.302  29.083   3.803  0.3094 -0.1760  0.1347
    1DIPC   D2A29202  18.413  28.991   4.307  0.0596  0.0338 -0.2798
    1DIPC   D3A29203  18.413  28.711   4.719  0.1199 -0.2314 -0.2256
    1DIPC   C4A29204  18.450  28.322   4.958 -0.1198 -0.3352 -0.1345
    1DIPC   C1B29205  17.764  29.195   3.849 -0.1960 -0.0208 -0.0847
    1DIPC   D2B29206  17.689  29.001   4.317  0.1181  0.0511 -0.2565
    1DIPC   D3B29207  17.745  28.605   4.631  0.0267  0.0481  0.3700
    1DIPC   C4B29208  18.010  28.493   4.951  0.0382 -0.2656 -0.0877
    1DIPC   NC329209   2.374   9.016   2.652 -0.0466 -0.0579 -0.3540
    1DIPC   PO429210   2.716   9.200   2.669  0.2156  0.1499 -0.0591
    1DIPC   GL129211   2.691   9.280   3.027 -0.0440  0.0303  0.0547
    1DIPC   GL229212   2.517   9.192   3.208 -0.0006 -0.1815 -0.1004
    1DIPC   C1A29213   2.917   9.367   3.454 -0.2646 -0.0857 -0.1200
    1DIPC   D2A29214   2.839   9.478   3.941 -0.0553  0.0299  0.1255
    1DIPC   D3A29215   3.128   9.328   4.240 -0.1389 -0.3272 -0.5271
    1DIPC   C4A29216   3.347   9.644   4.369  0.0270  0.0294  0.1273
    1DIPC   C1B29217   2.476   9.189   3.711 -0.1107 -0.0951 -0.0233
    1DIPC   D2B29218   2.665   9.057   4.147  0.1566 -0.3921  0.1530
    1DIPC   D3B29219   2.545   8.853   4.438 -0.1261  0.1836 -0.3113
    1DIPC   C4B29220   2.156   8.817   4.630  0.3207  0.4101  0.3111
    1DIPC   NC329221   2.998  28.768   3.262  0.0073 -0.1031 -0.0585
    1DIPC   PO429222   2.816  28.626   3.664 -0.1187 -0.4750 -0.0812
    1DIPC   GL129223   2.819  28.631   4.058  0.1135  0.0179  0.1038
    1DIPC   GL229224   2.630  28.929   4.037 -0.1268  0.1475  0.1486
    1DIPC   C1A29225   2.743  28.502   4.566 -0.1505  0.0706  0.2203
    1DIPC   D2A29226   2.701  28.219   4.936 -0.1136  0.0365  0.0206
    1DIPC   D3A29227   3.197  28.109   5.128 -0.4441 -0.1246 -0.1672
    1DIPC   C4A29228   3.536  27.767   5.305 -0.0439  0.3657 -0.1807
    1DIPC   C1B29229   2.647  29.019   4.491  0.0474 -0.2314  0.1255
    1DIPC   D2B29230   2.822  29.359   4.657  0.3847  0.1127  0.1725
    1DIPC   D3B29231   2.434  29.391   4.711  0.0396 -0.0025 -0.1344
    1DIPC   C4B29232   2.271  29.022   4.954  0.1771  0.0206  0.1515
    1DIPC   NC329233   1.462  10.657   1.968 -0.1057  0.1880  0.1617
    1DIPC   PO429234   1.397  10.781   2.414  0.1126  0.4011  0.0911
    1DIPC   GL129235   1.328  11.039   2.814  0.2032  0.1678  0.1268
    1DIPC   GL229236   1.159  11.377   2.883 -0.0565 -0.0481 -0.3391
    1DIPC   C1A29237   1.351  11.149   3.315  0.1798 -0.0532 -0.0327
    1DIPC   D2A29238   1.508  10.962   3.673 -0.1629  0.3501  0.0263
    1DIPC   D3A29239   1.278  10.564   3.838  0.3702  0.1739  0.1673
    1DIPC   C4A29240   1.528  10.361   4.141  0.2862  0.1549 -0.0764
    1DIPC   C1B29241   0.927  11.445   3.243 -0.2022 -0.0140  0.0532
    1DIPC   D2B29242   0.527  11.379   3.292 -0.1329 -0.1735  0.4469
    1DIPC   D3B29243   0.865  10.977   2.989 -0.1336  0.2914 -0.1251
    1DIPC   C4B29244   0.715  10.544   3.147 -0.2270  0.0374 -0.0502
    1DIPC   NC329245   6.837   3.673   3.305 -0.2600  0.1002  0.1491
    1DIPC   PO429246   6.467   3.643   3.356  0.1857 -0.0134 -0.2253
    1DIPC   GL129247   6.616   3.884   3.713 -0.1885 -0.0537  0.0602
    1DIPC   GL229248   6.359   4.086   3.840  0.2651  0.1543 -0.1284
    1DIPC   C1A29249   6.859   4.031   4.165 -0.0185  0.0499  0.1325
    1DIPC   D2A29250   6.902   4.092   4.509 -0.0821 -0.2331 -0.1555
    1DIPC   D3A29251   7.246   4.369   4.777 -0.2597 -0.0057  0.1273
    1DIPC   C4A29252   7.366   4.169   5.123 -0.0517 -0.2911 -0.2943
    1DIPC   C1B29253   6.311   4.061   4.267 -0.0068  0.1300 -0.0043
    1DIPC   D2B29254   6.387   3.896   4.714 -0.1065 -0.1554 -0.1248
    1DIPC   D3B29255   6.123   3.546   4.717  0.1662 -0.4177 -0.0650
    1DIPC   C4B29256   6.039   3.344   5.159 -0.0768  0.1180  0.4318
    1DIPC   NC329257  28.909  15.319   1.670  0.2034  0.2141 -0.0338
    1DIPC   PO429258  29.318  15.377   1.614  0.0486 -0.0933  0.3214
    1DIPC   GL129259  29.336  15.270   1.980  0.2433 -0.1555 -0.0638
    1DIPC   GL229260  29.245  15.101   2.204 -0.2792 -0.1350  0.1751
    1DIPC   C1A29261  29.599  15.478   2.226  0.1558 -0.3269  0.2786
    1DIPC   D2A29262  29.969  15.362   2.037 -0.2678  0.1161 -0.2134
    1DIPC   D3A29263  30.264  15.074   2.260 -0.0204 -0.0164  0.4039
    1DIPC   C4A29264  30.453  14.818   2.597  0.0306 -0.1003 -0.0542
    1DIPC   C1B29265  29.366  15.038   2.629 -0.2462  0.0375 -0.0027
    1DIPC   D2B29266  29.394  15.250   3.026 -0.2303  0.0515  0.1880
    1DIPC   D3B29267  28.981  15.223   2.890 -0.2502  0.3131 -0.0135
    1DIPC   C4B29268  28.896  14.936   2.591  0.1487  0.1797 -0.3757
    1DIPC   NC329269   2.682   9.693   2.435  0.3324 -0.2451  0.0528
    1DIPC   PO429270   2.316   9.491   2.434 -0.1207 -0.2370 -0.3266
    1DIPC   GL129271   2.300   9.543   2.849 -0.3361 -0.0740  0.1232
    1DIPC   GL229272   2.490   9.791   2.940 -0.2398  0.2347 -0.2609
    1DIPC   C1A29273   2.101   9.419   3.103 -0.1789 -0.1595 -0.0750
    1DIPC   D2A29274   2.035   9.039   3.368 -0.1321  0.0852 -0.1209
    1DIPC   D3A29275   1.725   9.368   3.498  0.1384 -0.4106 -0.1170
    1DIPC   C4A29276   1.457   9.283   3.949 -0.3431 -0.1478 -0.0980
    1DIPC   C1B29277   2.127   9.983   3.077 -0.2754 -0.0317 -0.1303
    1DIPC   D2B29278   1.763  10.242   3.211 -0.2417 -0.2320 -0.2758
    1DIPC   D3B29279   1.583  10.342   3.511 -0.2726  0.3189 -0.0074
    1DIPC   C4B29280   1.831  10.568   3.688 -0.0216  0.0444  0.0037
    1DIPC   NC329281   1.476  12.646   2.214  0.2153  0.2204  0.2634
    1DIPC   PO429282   1.733  12.962   2.102 -0.0255 -0.1411  0.1533
    1DIPC   GL129283   1.567  13.115   2.509 -0.1639  0.2329  0.1138
    1DIPC   GL229284   1.273  13.214   2.719 -0.0177  0.0603 -0.3153
    1DIPC   C1A29285   1.774  13.340   2.849  0.0235  0.0022 -0.0274
    1DIPC   D2A29286   2.015  13.587   3.160  0.1453 -0.0204  0.0082
    1DIPC   D3A29287   1.721  13.638   3.529  0.2399 -0.1398  0.1081
    1DIPC   C4A29288   1.866  14.032   3.841  0.4176 -0.1162 -0.0793
    1DIPC   C1B29289   1.290  13.300   3.187  0.1439 -0.0496  0.0962
    1DIPC   D2B29290   1.193  13.578   3.512 -0.1943 -0.1118 -0.1604
    1DIPC   D3B29291   1.374  13.209   3.687 -0.1747  0.2303 -0.0899
    1DIPC   C4B29292   1.749  13.134   3.334 -0.0668  0.0255 -0.0553
    1DIPC   NC329293  11.769  24.685   2.903 -0.2830  0.0276 -0.2549
    1DIPC   PO429294  12.133  24.477   2.897 -0.1158  0.1354 -0.0281
    1DIPC   GL129295  12.160  24.359   3.329  0.0331  0.4639 -0.0154
    1DIPC   GL229296  12.049  24.662   3.349  0.0444 -0.0024 -0.2776
    1DIPC   C1A29297  12.333  24.425   3.762  0.0589 -0.0736  0.2551
    1DIPC   D2A29298  12.237  24.474   4.160  0.0273 -0.1711  0.0372
    1DIPC   D3A29299  11.991  24.853   4.481 -0.0874 -0.1131 -0.1814
    1DIPC   C4A29300  12.326  25.100   4.685  0.0922  0.0873  0.0256
    1DIPC   C1B29301  12.246  24.910   3.636 -0.2620  0.1632 -0.1599
    1DIPC   D2B29302  12.251  24.968   4.076 -0.2580  0.1566  0.2770
    1DIPC   D3B29303  12.591  24.765   4.375  0.0724 -0.0573  0.2438
    1DIPC   C4B29304  12.442  24.441   4.785  0.2764 -0.0953 -0.1931
    1DIPC   NC329305  25.538  21.025   2.365  0.2094 -0.1378  0.3360
    1DIPC   PO429306  25.127  21.120   2.386 -0.0270  0.0903 -0.2522
    1DIPC   GL129307  25.261  21.111   2.802 -0.0068 -0.1442  0.1540
    1DIPC   GL229308  25.011  21.242   2.911 -0.0006 -0.0060 -0.2575
    1DIPC   C1A29309  25.178  20.887   3.249 -0.3054 -0.2271 -0.1256
    1DIPC   D2A29310  25.203  20.839   3.707 -0.0635 -0.1196 -0.0530
    1DIPC   D3A29311  24.955  20.664   3.633  0.2099 -0.1030 -0.1743
    1DIPC   C4A29312  24.650  20.745   3.322 -0.2694  0.3352 -0.0532
    1DIPC   C1B29313  24.864  21.229   3.337  0.0958 -0.2051 -0.5172
    1DIPC   D2B29314  24.629  21.055   3.738 -0.1031 -0.1987  0.3045
    1DIPC   D3B29315  24.487  21.279   4.051 -0.1612 -0.2400  0.2760
    1DIPC   C4B29316  24.324  20.957   4.284 -0.2029 -0.0608 -0.1099
    1DIPC   NC329317  29.135   6.313   2.197 -0.3979 -0.2066  0.0489
    1DIPC   PO429318  29.456   6.348   2.553 -0.0322 -0.0825  0.1802
    1DIPC   GL129319  29.474   6.366   2.897  0.0302  0.0920  0.0819
    1DIPC   GL229320  29.896   6.215   2.930 -0.0107  0.4213  0.0804
    1DIPC   C1A29321  29.431   6.427   3.328  0.1266  0.2691  0.0374
    1DIPC   D2A29322  29.227   6.144   3.660  0.0286 -0.1392  0.0605
    1DIPC   D3A29323  29.376   5.803   3.873  0.1254  0.5349  0.3735
    1DIPC   C4A29324  29.081   5.711   4.168 -0.0444  0.0636 -0.3801
    1DIPC   C1B29325  29.783   5.972   3.312 -0.3145 -0.0554 -0.0628
    1DIPC   D2B29326  29.705   5.694   3.495  0.4383  0.0275  0.3491
    1DIPC   D3B29327  29.318   5.664   3.364  0.1603  0.1925 -0.1184
    1DIPC   C4B29328  29.238   5.984   3.097  0.2550 -0.1263 -0.0139
    1DIPC   NC329329  14.006  27.945   3.478 -0.1141 -0.0531 -0.0288
    1DIPC   PO429330  13.723  27.645   3.607 -0.3730  0.2758  0.0416
    1DIPC   GL129331  13.813  27.724   3.966 -0.2506 -0.1692  0.0124
    1DIPC   GL229332  14.081  27.915   4.023  0.0266 -0.0644 -0.3833
    1DIPC   C1A29333  13.701  27.818   4.393 -0.1002 -0.1260 -0.0196
    1DIPC   D2A29334  13.371  27.882   4.746 -0.0542 -0.0142  0.1031
    1DIPC   D3A29335  13.080  27.942   5.047  0.0522  0.1194  0.1104
    1DIPC   C4A29336  13.227  28.285   5.193 -0.0320 -0.1523 -0.1466
    1DIPC   C1B29337  14.240  27.748   4.455  0.0527  0.0326  0.1857
    1DIPC   D2B29338  14.403  27.346   4.575 -0.2105 -0.0416  0.1474
    1DIPC   D3B29339  14.285  26.918   4.553  0.3468 -0.2532  0.0944
    1DIPC   C4B29340  14.690  26.781   4.681 -0.1968  0.1661  0.3728
    1DIPC   NC329341  12.129  28.869   3.079  0.1073  0.4438  0.4598
    1DIPC   PO429342  12.555  28.898   3.332 -0.0484 -0.1185  0.0745
    1DIPC   GL129343  12.560  28.792   3.894 -0.0286 -0.3458 -0.1757
    1DIPC   GL229344  12.834  28.635   4.050  0.0350  0.0846  0.0922
    1DIPC   C1A29345  12.190  28.762   4.128 -0.1409  0.2109  0.0333
    1DIPC   D2A29346  11.895  29.052   4.379  0.0260 -0.1591  0.2938
    1DIPC   D3A29347  11.724  28.764   4.592  0.0457 -0.1918  0.3314
    1DIPC   C4A29348  11.511  28.365   4.446 -0.1592  0.4962 -0.1485
    1DIPC   C1B29349  12.939  28.748   4.463  0.1738  0.0251 -0.0483
    1DIPC   D2B29350  13.226  28.701   4.845 -0.0685 -0.0251 -0.1579
    1DIPC   D3B29351  13.710  28.785   5.024  0.1812  0.3331 -0.1000
    1DIPC   C4B29352  13.896  28.488   4.993  0.2455 -0.2070  0.1594
    1DIPC   NC329353  29.326   4.241   2.450 -0.0965 -0.0496  0.0273
    1DIPC   PO429354  29.097   4.530   2.743 -0.0569  0.0756 -0.3884
    1DIPC   GL129355  29.096   4.389   3.164  0.1287 -0.3068 -0.1012
    1DIPC   GL229356  29.136   4.257   3.406 -0.3106 -0.2622  0.0803
    1DIPC   C1A29357  28.779   4.588   3.469  0.2046  0.2997  0.1150
    1DIPC   D2A29358  28.673   4.539   3.898  0.0258  0.1047  0.0045
    1DIPC   D3A29359  28.515   4.999   3.815  0.1426 -0.0021  0.0231
    1DIPC   C4A29360  28.800   5.332   3.828 -0.0087  0.0268 -0.2765
    1DIPC   C1B29361  28.905   3.935   3.553 -0.2025 -0.0464 -0.0996
    1DIPC   D2B29362  28.749   3.483   3.608 -0.1842 -0.0288  0.0177
    1DIPC   D3B29363  28.489   3.508   3.998 -0.7331  0.0080 -0.2207
    1DIPC   C4B29364  28.210   3.686   4.304 -0.2159 -0.1073  0.0080
    1DIPC   NC329365  26.732   3.502   2.610 -0.1240 -0.0585  0.0728
    1DIPC   PO429366  26.797   3.802   2.993  0.2639 -0.2119 -0.0285
    1DIPC   GL129367  26.880   3.964   3.409 -0.1301 -0.1725  0.0040
    1DIPC   GL229368  27.015   4.270   3.486 -0.0558 -0.1812 -0.0385
    1DIPC   C1A29369  26.859   3.864   3.813 -0.0606  0.2115 -0.0700
    1DIPC   D2A29370  27.030   3.501   4.004 -0.0656 -0.0602  0.1095
    1DIPC   D3A29371  26.999   3.689   4.439  0.0318 -0.0727 -0.2742
    1DIPC   C4A29372  27.022   4.131   4.276  0.2456 -0.0051  0.0093
    1DIPC   C1B29373  26.643   4.299   3.697  0.1477 -0.0087 -0.1349
    1DIPC   D2B29374  26.392   4.047   3.974  0.0508 -0.2527 -0.3043
    1DIPC   D3B29375  26.325   3.975   3.490 -0.0543 -0.1917 -0.2469
    1DIPC   C4B29376  25.910   3.905   3.397  0.3106 -0.0364  0.1478
    1DIPC   NC329377  28.111  15.993   1.641  0.1621 -0.1040  0.0196
    1DIPC   PO429378  27.744  16.338   1.705 -0.2370  0.1051  0.1771
    1DIPC   GL129379  27.670  16.171   2.132 -0.1372 -0.3014  0.0358
    1DIPC   GL229380  27.897  15.832   2.130 -0.0077 -0.2527 -0.2307
    1DIPC   C1A29381  27.611  16.268   2.544 -0.0096  0.1378  0.2176
    1DIPC   D2A29382  27.345  16.476   2.954 -0.3177 -0.3753 -0.1960
    1DIPC   D3A29383  27.505  16.345   3.323 -0.0091  0.0112  0.0740
    1DIPC   C4A29384  27.728  15.959   3.451  0.2391  0.2128  0.2574
    1DIPC   C1B29385  28.104  16.135   2.388  0.0662 -0.0408 -0.0988
    1DIPC   D2B29386  28.138  16.564   2.469  0.0441  0.0715  0.0245
    1DIPC   D3B29387  27.760  16.681   2.246  0.0182  0.0320 -0.0877
    1DIPC   C4B29388  27.561  17.086   2.169 -0.0829  0.1482 -0.0256
    1DIPC   NC329389  11.128   5.885   3.465 -0.0848  0.0383 -0.1504
    1DIPC   PO429390  11.199   6.312   3.389  0.2059  0.0391 -0.0665
    1DIPC   GL129391  11.213   6.405   3.799  0.2362 -0.1298 -0.1216
    1DIPC   GL229392  10.972   6.614   3.838 -0.1472  0.1608 -0.1204
    1DIPC   C1A29393  11.256   6.494   4.272 -0.1096  0.2903 -0.1003
    1DIPC   D2A29394  11.575   6.629   4.463 -0.2547  0.1523 -0.1682
    1DIPC   D3A29395  11.378   6.799   4.788  0.0760  0.0349  0.2020
    1DIPC   C4A29396  11.345   6.538   5.206  0.1635  0.2465  0.2377
    1DIPC   C1B29397  10.803   6.632   4.362  0.2299  0.0296  0.2480
    1DIPC   D2B29398  10.946   6.597   4.721 -0.0842  0.0204  0.3960
    1DIPC   D3B29399  10.669   6.270   4.834 -0.1977 -0.0237 -0.0536
    1DIPC   C4B29400  10.463   6.201   5.236 -0.0739 -0.1962  0.0921
    1DIPC   NC329401  22.033   7.672   2.830  0.1923 -0.0288 -0.2241
    1DIPC   PO429402  21.909   7.426   3.099  0.2985 -0.0179  0.3425
    1DIPC   GL129403  21.852   7.347   3.498 -0.2014  0.3346 -0.4462
    1DIPC   GL229404  21.814   7.049   3.491  0.0842 -0.3104 -0.0991
    1DIPC   C1A29405  21.654   7.168   3.983 -0.0040 -0.2573  0.0598
    1DIPC   D2A29406  21.620   7.069   4.296 -0.1054 -0.2701 -0.4593
    1DIPC   D3A29407  21.669   6.948   4.625 -0.0646 -0.2633  0.1111
    1DIPC   C4A29408  21.524   7.251   4.954 -0.1945  0.0222 -0.0249
    1DIPC   C1B29409  22.130   6.931   3.881  0.2592 -0.1556  0.0423
    1DIPC   D2B29410  22.448   7.176   4.120  0.1115  0.1262 -0.0755
    1DIPC   D3B29411  22.423   7.279   4.605  0.1006 -0.1390  0.0945
    1DIPC   C4B29412  22.283   7.619   4.908 -0.2036 -0.3713 -0.2233
    1DIPC   NC329413  27.704  21.850   2.136 -0.1084 -0.0590  0.0403
    1DIPC   PO429414  27.501  21.811   2.522 -0.2791  0.1592  0.2888
    1DIPC   GL129415  27.444  21.823   2.885 -0.2540  0.2492 -0.0476
    1DIPC   GL229416  27.718  21.973   3.045  0.2044  0.0132  0.0770
    1DIPC   C1A29417  27.319  21.695   3.209 -0.1629 -0.1525 -0.2581
    1DIPC   D2A29418  27.309  21.614   3.605 -0.1055 -0.1263 -0.1525
    1DIPC   D3A29419  27.574  21.384   3.857 -0.2243  0.0439 -0.3171
    1DIPC   C4A29420  27.900  21.018   3.736  0.2506  0.1364  0.4092
    1DIPC   C1B29421  28.129  21.753   3.147 -0.2359 -0.0763 -0.2696
    1DIPC   D2B29422  28.387  21.639   3.370  0.0347 -0.0696 -0.0317
    1DIPC   D3B29423  28.056  21.426   3.553 -0.0368  0.0722 -0.0819
    1DIPC   C4B29424  27.777  21.384   3.182 -0.1892  0.0843  0.0361
    1DIPC   NC329425  26.833   0.151   2.742 -0.0570  0.0347  0.0616
    1DIPC   PO429426  26.990  -0.228   2.802 -0.0134 -0.2920 -0.1004
    1DIPC   GL129427  26.920  -0.139   3.202  0.0792  0.0868 -0.1962
    1DIPC   GL229428  27.222  -0.274   3.225 -0.0138 -0.4448 -0.0809
    1DIPC   C1A29429  26.865   0.030   3.615 -0.0506 -0.1334 -0.0866
    1DIPC   D2A29430  26.610   0.270   3.949 -0.0420  0.0418 -0.0585
    1DIPC   D3A29431  26.419  -0.069   4.162 -0.0677  0.0642 -0.0792
    1DIPC   C4A29432  25.987   0.015   4.257 -0.0762  0.3091  0.0112
    1DIPC   C1B29433  26.923  -0.501   3.522  0.2390 -0.3966  0.1518
    1DIPC   D2B29434  26.700  -0.697   3.778 -0.3658  0.0839  0.1073
    1DIPC   D3B29435  26.831  -0.264   3.992  0.0068 -0.2298 -0.3023
    1DIPC   C4B29436  26.882   0.083   4.358 -0.1793 -0.1093  0.2173
    1DIPC   NC329437  19.860   3.605   3.510 -0.0736  0.4533  0.0322
    1DIPC   PO429438  20.257   3.553   3.290 -0.0275  0.1659 -0.1945
    1DIPC   GL129439  20.280   3.807   3.762  0.1022  0.0867  0.1137
    1DIPC   GL229440  20.443   4.144   3.693 -0.5082 -0.0395  0.0289
    1DIPC   C1A29441  20.460   3.883   4.194 -0.1874  0.0676 -0.0422
    1DIPC   D2A29442  20.769   3.963   4.484 -0.0331 -0.1364  0.3275
    1DIPC   D3A29443  21.169   4.323   4.569  0.2276  0.3085  0.1024
    1DIPC   C4A29444  21.435   4.437   4.880  0.0991  0.0116 -0.1606
    1DIPC   C1B29445  20.602   4.524   3.714  0.0633  0.0203  0.1296
    1DIPC   D2B29446  20.909   4.854   3.664  0.0768 -0.0108  0.1194
    1DIPC   D3B29447  21.309   4.747   3.713 -0.0698  0.1957  0.2319
    1DIPC   C4B29448  21.298   4.481   4.064 -0.6399  0.3003  0.0440
    1DIPC   NC329449  24.007  27.096   3.486 -0.1004  0.1806 -0.0274
    1DIPC   PO429450  24.375  27.119   3.262  0.1173  0.0436  0.0622
    1DIPC   GL129451  24.469  27.163   3.738  0.3111  0.2732  0.0423
    1DIPC   GL229452  24.687  27.356   3.800 -0.3101 -0.0001  0.1947
    1DIPC   C1A29453  24.628  26.929   3.996 -0.2852  0.3713 -0.1411
    1DIPC   D2A29454  24.889  26.611   4.100  0.2892 -0.3676  0.2519
    1DIPC   D3A29455  25.014  26.771   4.527 -0.2400 -0.1683 -0.3690
    1DIPC   C4A29456  24.916  26.508   4.921  0.2483 -0.0845 -0.1834
    1DIPC   C1B29457  24.855  27.660   4.092  0.1803  0.0480  0.1397
    1DIPC   D2B29458  24.960  27.661   4.534  0.3253  0.2095 -0.3770
    1DIPC   D3B29459  24.721  27.364   4.848  0.1096  0.0224 -0.1594
    1DIPC   C4B29460  24.724  27.242   5.304  0.3685  0.0379  0.0111
    1DIPC   NC329461   7.848   7.630   3.882 -0.0971 -0.0454 -0.1402
    1DIPC   PO429462   7.364   7.474   3.875 -0.1213  0.0888  0.0653
    1DIPC   GL129463   7.153   7.655   4.193 -0.3634  0.1336  0.1489
    1DIPC   GL229464   6.972   7.410   4.394 -0.2424 -0.0530 -0.0846
    1DIPC   C1A29465   7.159   7.834   4.609  0.2572 -0.2317 -0.0252
    1DIPC   D2A29466   6.947   8.040   4.849  0.3226  0.4816  0.3939
    1DIPC   D3A29467   6.790   8.452   5.094  0.2142 -0.1929 -0.0171
    1DIPC   C4A29468   6.442   8.380   5.424  0.2041  0.1180  0.0596
    1DIPC   C1B29469   6.944   7.432   4.887 -0.2006  0.0555 -0.0746
    1DIPC   D2B29470   7.083   7.135   5.127 -0.2611  0.1558 -0.2991
    1DIPC   D3B29471   6.942   7.025   5.489  0.1615 -0.0991 -0.0526
    1DIPC   C4B29472   7.240   7.060   5.903 -0.2958 -0.0653 -0.0652
    1DIPC   NC329473  23.719  22.586   2.690 -0.5900 -0.2678  0.0087
    1DIPC   PO429474  23.596  23.041   2.769 -0.3981 -0.1776 -0.0840
    1DIPC   GL129475  23.757  22.801   3.135 -0.0651  0.0186  0.0119
    1DIPC   GL229476  23.664  22.543   3.228  0.3013 -0.1212 -0.4999
    1DIPC   C1A29477  23.977  22.606   3.567  0.0466 -0.2404  0.3005
    1DIPC   D2A29478  23.988  22.299   3.790 -0.1295  0.0567  0.0135
    1DIPC   D3A29479  24.152  22.636   4.163  0.5166 -0.0453 -0.0004
    1DIPC   C4A29480  24.053  22.427   4.537  0.2650 -0.2861 -0.0058
    1DIPC   C1B29481  23.186  22.437   3.440  0.3889 -0.4720 -0.1346
    1DIPC   D2B29482  22.885  22.500   3.672 -0.1266 -0.2484  0.1985
    1DIPC   D3B29483  22.688  22.743   3.951 -0.0878 -0.0639 -0.0527
    1DIPC   C4B29484  22.317  22.590   3.868 -0.4846  0.2937  0.2055
    1DIPC   NC329485   2.229   8.184   1.950  0.0169 -0.1134 -0.2843
    1DIPC   PO429486   1.866   8.454   2.098  0.3029  0.1244 -0.2372
    1DIPC   GL129487   1.732   8.487   2.568 -0.0535  0.1655  0.0470
    1DIPC   GL229488   1.685   8.188   2.840 -0.0674  0.0656  0.3433
    1DIPC   C1A29489   1.800   8.701   2.959  0.3711  0.3073  0.1232
    1DIPC   D2A29490   1.593   8.934   3.102  0.0603  0.1150  0.2851
    1DIPC   D3A29491   1.540   8.901   3.410  0.0508  0.2602  0.4823
    1DIPC   C4A29492   1.235   9.138   3.582 -0.0208  0.0709  0.0217
    1DIPC   C1B29493   1.582   7.800   2.932  0.2575 -0.0682  0.2176
    1DIPC   D2B29494   1.277   7.563   3.188  0.2335 -0.0766  0.1449
    1DIPC   D3B29495   1.187   7.754   3.530 -0.1347 -0.0853  0.1367
    1DIPC   C4B29496   1.460   7.765   3.904 -0.0739 -0.1361  0.0125
    1DIPC   NC329497   8.154  28.053   3.068 -0.1812  0.1713 -0.2557
    1DIPC   PO429498   8.152  27.868   3.402 -0.0711  0.3449 -0.0451
    1DIPC   GL129499   8.051  27.740   3.824  0.1926  0.0322  0.1028
    1DIPC   GL229500   8.278  27.870   4.015  0.0419  0.0062  0.0979
    1DIPC   C1A29501   8.249  27.390   4.070  0.0605 -0.0607 -0.0455
    1DIPC   D2A29502   8.673  27.283   4.329  0.1775  0.1108  0.0710
    1DIPC   D3A29503   8.361  27.233   4.691 -0.0117  0.5219  0.1526
    1DIPC   C4A29504   7.975  27.214   4.444  0.0983 -0.1189  0.1347
    1DIPC   C1B29505   8.630  27.870   4.265  0.0371  0.4497  0.0501
    1DIPC   D2B29506   8.989  27.753   4.404  0.1669  0.2657  0.1236
    1DIPC   D3B29507   9.499  27.845   4.419  0.0788  0.1145  0.1158
    1DIPC   C4B29508   9.788  27.775   4.735 -0.0008  0.3325  0.0529
    1DIPC   NC329509  17.796  27.204   2.406  0.1160  0.3026 -0.2395
    1DIPC   PO429510  17.774  27.040   2.799  0.0522  0.2325 -0.1166
    1DIPC   GL129511  17.547  27.200   3.154  0.1855  0.1890 -0.0104
    1DIPC   GL229512  17.262  27.331   3.416  0.1564  0.1066  0.4263
    1DIPC   C1A29513  17.776  27.274   3.552 -0.2324  0.0664 -0.0425
    1DIPC   D2A29514  17.849  26.915   3.845  0.1978  0.1250 -0.0089
    1DIPC   D3A29515  17.514  26.797   4.141  0.0121 -0.0482  0.0741
    1DIPC   C4A29516  17.640  26.548   4.513 -0.2960  0.0187  0.1290
    1DIPC   C1B29517  17.335  26.944   3.671  0.1588 -0.0944  0.0064
    1DIPC   D2B29518  17.556  26.533   3.708 -0.0301 -0.4996  0.1060
    1DIPC   D3B29519  17.498  26.304   4.129  0.1581 -0.0530  0.0717
    1DIPC   C4B29520  17.179  25.949   4.261  0.0814 -0.0101  0.0143
    1DIPC   NC329521   6.966  12.199   2.768  0.2982 -0.2871 -0.2218
    1DIPC   PO429522   7.055  12.254   3.270 -0.0003  0.2422  0.0422
    1DIPC   GL129523   7.006  12.203   3.666  0.0802  0.1126  0.3416
    1DIPC   GL229524   7.054  12.479   3.760  0.1139 -0.1596 -0.4367
    1DIPC   C1A29525   7.063  12.060   4.051  0.2549 -0.2218  0.2493
    1DIPC   D2A29526   7.003  12.183   4.444  0.3504 -0.0688 -0.0829
    1DIPC   D3A29527   7.186  11.981   4.766 -0.0119 -0.1142 -0.0860
    1DIPC   C4A29528   7.485  12.152   4.870 -0.2945 -0.1084  0.3142
    1DIPC   C1B29529   7.105  12.634   4.187  0.1016  0.1186  0.1875
    1DIPC   D2B29530   7.360  12.553   4.508 -0.1530 -0.0254  0.3088
    1DIPC   D3B29531   7.096  12.460   4.824 -0.0918 -0.3858 -0.1878
    1DIPC   C4B29532   7.259  12.489   5.218 -0.1315  0.0772 -0.3361
    1DIPC   NC329533  30.024  22.875   2.223  0.0202 -0.1329  0.0450
    1DIPC   PO429534  29.870  23.164   2.502  0.1408 -0.2882  0.0659
    1DIPC   GL129535  29.754  23.213   2.912  0.1351 -0.2689  0.0385
    1DIPC   GL229536  29.502  23.539   2.890  0.0459  0.2176  0.1761
    1DIPC   C1A29537  29.891  23.291   3.262 -0.1432 -0.2526 -0.0621
    1DIPC   D2A29538  29.695  23.298   3.708  0.0572 -0.1492 -0.0016
    1DIPC   D3A29539  29.846  23.126   4.142  0.1734  0.0858 -0.2631
    1DIPC   C4A29540  29.738  23.524   4.315  0.4368 -0.0029 -0.1879
    1DIPC   C1B29541  29.389  23.447   3.347 -0.2744 -0.1516 -0.1358
    1DIPC   D2B29542  29.081  23.242   3.440  0.1138  0.0580 -0.2574
    1DIPC   D3B29543  28.784  22.981   3.468 -0.3341  0.2007  0.0683
    1DIPC   C4B29544  28.773  22.734   3.813 -0.1648  0.1261 -0.2242
    1DIPC   NC329545  16.428  28.918   2.707  0.1879  0.0226  0.1634
    1DIPC   PO429546  16.029  28.986   2.956  0.1095  0.0168 -0.0935
    1DIPC   GL129547  15.927  28.849   3.346  0.2088 -0.4345  0.0709
    1DIPC   GL229548  15.798  29.130   3.553  0.0529  0.0597  0.0307
    1DIPC   C1A29549  15.991  28.706   3.771  0.0001  0.0002  0.1223
    1DIPC   D2A29550  16.236  28.436   3.941 -0.1003 -0.0635  0.1367
    1DIPC   D3A29551  16.420  28.619   4.325  0.1189  0.0551  0.2631
    1DIPC   C4A29552  16.673  28.277   4.612 -0.2384  0.2206 -0.2573
    1DIPC   C1B29553  16.065  29.183   3.956  0.1303  0.3318  0.0164
    1DIPC   D2B29554  16.235  29.165   4.361 -0.1337  0.0185 -0.1015
    1DIPC   D3B29555  16.490  29.493   4.586 -0.0569  0.1149 -0.3413
    1DIPC   C4B29556  16.789  29.594   4.839  0.1070 -0.0202  0.3617
    1DIPC   NC329557  15.302  25.433   3.046  0.0126  0.0921 -0.0031
    1DIPC   PO429558  15.246  25.046   2.828  0.3436  0.3012 -0.1351
    1DIPC   GL129559  14.865  25.095   3.130  0.2228 -0.2097 -0.1582
    1DIPC   GL229560  14.968  25.342   3.370 -0.0052  0.1069 -0.4085
    1DIPC   C1A29561  14.523  25.093   3.452  0.1537  0.1629  0.0434
    1DIPC   D2A29562  14.171  24.854   3.646  0.0960  0.1721 -0.1519
    1DIPC   D3A29563  14.453  24.598   3.752 -0.0811  0.1484 -0.0422
    1DIPC   C4A29564  14.304  24.356   4.156 -0.2143 -0.3305  0.1951
    1DIPC   C1B29565  15.028  25.019   3.587 -0.0056 -0.0828  0.0919
    1DIPC   D2B29566  15.036  24.620   3.612  0.1440  0.0804 -0.3250
    1DIPC   D3B29567  15.032  24.636   4.086 -0.0621  0.1825  0.1289
    1DIPC   C4B29568  14.715  24.580   4.372 -0.0278  0.2487  0.1085
    1DIPC   NC329569  13.007   3.231   3.734 -0.2863 -0.1915  0.2729
    1DIPC   PO429570  13.306   2.875   3.738  0.0856 -0.0921 -0.4464
    1DIPC   GL129571  13.356   2.979   4.160 -0.0527  0.0844  0.1310
    1DIPC   GL229572  13.024   3.086   4.257 -0.0036 -0.0371 -0.0065
    1DIPC   C1A29573  13.427   2.886   4.556 -0.2449  0.1303 -0.2185
    1DIPC   D2A29574  13.411   2.871   5.018 -0.1191  0.1033 -0.0553
    1DIPC   D3A29575  13.796   2.872   5.119  0.2355 -0.0816  0.0197
    1DIPC   C4A29576  14.127   3.121   5.364 -0.2006  0.2046 -0.3636
    1DIPC   C1B29577  12.759   3.513   4.394 -0.0785  0.0850 -0.1557
    1DIPC   D2B29578  12.637   3.564   4.849 -0.1195 -0.1474  0.0615
    1DIPC   D3B29579  12.277   3.605   4.701 -0.1585  0.0334 -0.1044
    1DIPC   C4B29580  12.236   3.645   4.233 -0.0293 -0.0815 -0.1585
    1DIPC   NC329581   6.900   2.869   2.871 -0.1230  0.0730 -0.0891
    1DIPC   PO429582   7.132   3.254   3.230  0.4823  0.0570 -0.2068
    1DIPC   GL129583   6.991   3.368   3.658 -0.1882 -0.1895 -0.2168
    1DIPC   GL229584   6.606   3.409   3.764 -0.1004  0.0697 -0.0494
    1DIPC   C1A29585   7.129   3.735   3.929 -0.3168 -0.0573  0.2534
    1DIPC   D2A29586   7.252   3.775   4.382 -0.2131 -0.3362  0.2251
    1DIPC   D3A29587   7.182   3.759   4.872 -0.3332 -0.0314  0.4169
    1DIPC   C4A29588   6.768   3.757   5.106 -0.1141  0.0637  0.0621
    1DIPC   C1B29589   6.758   3.480   4.196  0.3282 -0.1130  0.1124
    1DIPC   D2B29590   7.157   3.252   4.392  0.2009  0.1419  0.2666
    1DIPC   D3B29591   7.335   3.220   4.769  0.2042  0.0122 -0.2084
    1DIPC   C4B29592   7.052   3.327   5.099 -0.2327  0.1339  0.2107
    1DIPC   NC329593  24.698  10.031   2.367 -0.1344 -0.3721  0.0101
    1DIPC   PO429594  24.957  10.466   2.300  0.0237  0.5190  0.0962
    1DIPC   GL129595  25.232  10.505   2.628 -0.3030 -0.0360  0.3175
    1DIPC   GL229596  25.564  10.564   2.667  0.0480  0.2648  0.3940
    1DIPC   C1A29597  25.242  10.601   3.082 -0.2127  0.1941 -0.3398
    1DIPC   D2A29598  25.021  10.512   3.449  0.1770 -0.0045 -0.1309
    1DIPC   D3A29599  25.254  10.621   3.684  0.0150 -0.3201  0.4484
    1DIPC   C4A29600  25.068  11.019   3.806 -0.2160 -0.0027 -0.5754
    1DIPC   C1B29601  25.686  10.794   3.019  0.1899  0.0651 -0.1304
    1DIPC   D2B29602  25.921  10.869   3.481  0.1112  0.0665  0.0761
    1DIPC   D3B29603  25.689  10.792   3.840 -0.2867  0.2359 -0.0778
    1DIPC   C4B29604  25.958  10.719   4.156  0.1337  0.0426 -0.2344
    1DIPC   NC329605  26.209   3.008   2.041 -0.2561  0.1160 -0.1557
    1DIPC   PO429606  26.318   3.176   2.591  0.0632 -0.0500 -0.2226
    1DIPC   GL129607  26.323   3.243   2.984 -0.0710  0.2755 -0.0473
    1DIPC   GL229608  26.669   3.303   3.114  0.0529 -0.0363  0.1696
    1DIPC   C1A29609  26.268   3.100   3.364  0.0840  0.1993 -0.2902
    1DIPC   D2A29610  26.516   2.851   3.700  0.1558 -0.2779  0.0999
    1DIPC   D3A29611  26.783   2.994   3.493  0.2428  0.1856  0.0974
    1DIPC   C4A29612  26.966   2.928   3.124 -0.1857  0.0422 -0.1909
    1DIPC   C1B29613  26.595   3.462   3.510 -0.1551 -0.2450  0.1587
    1DIPC   D2B29614  26.613   3.294   3.983 -0.0086 -0.1113 -0.0033
    1DIPC   D3B29615  26.992   3.021   4.065  0.1124  0.2972  0.1214
    1DIPC   C4B29616  27.299   3.251   4.336 -0.1590  0.2205  0.1003
    1DIPC   NC329617   6.007  17.785   1.928 -0.2621  0.0320 -0.1230
    1DIPC   PO429618   5.778  17.496   2.187  0.0323 -0.3488  0.0736
    1DIPC   GL129619   5.948  17.811   2.459 -0.2429  0.1447  0.2196
    1DIPC   GL229620   6.147  17.655   2.677 -0.0357  0.0367 -0.3016
    1DIPC   C1A29621   5.624  18.059   2.774 -0.1187  0.3959  0.1734
    1DIPC   D2A29622   5.349  18.324   3.030 -0.4066  0.2159  0.0505
    1DIPC   D3A29623   5.213  18.176   3.341 -0.1981 -0.1702  0.0444
    1DIPC   C4A29624   5.301  17.715   3.476  0.2520 -0.0057  0.0041
    1DIPC   C1B29625   6.163  17.998   2.900  0.1771  0.2506  0.0283
    1DIPC   D2B29626   6.348  18.317   3.228  0.0617  0.1597 -0.1843
    1DIPC   D3B29627   6.508  18.528   2.845 -0.1323 -0.0484 -0.1304
    1DIPC   C4B29628   6.449  18.854   2.608 -0.0859  0.0778  0.1192
    1DIPC   NC329629  29.534   6.878   2.836 -0.0621  0.0650  0.0090
    1DIPC   PO429630  29.156   7.158   2.762  0.0419 -0.2270  0.1704
    1DIPC   GL129631  28.812   7.083   2.983 -0.1531 -0.1354  0.2527
    1DIPC   GL229632  28.675   6.757   3.065  0.1409  0.0536 -0.2730
    1DIPC   C1A29633  28.763   7.106   3.383 -0.1012 -0.1407 -0.0824
    1DIPC   D2A29634  28.398   7.311   3.530 -0.1849 -0.0278  0.0854
    1DIPC   D3A29635  28.578   7.324   3.966  0.1493  0.2112 -0.1628
    1DIPC   C4A29636  28.628   7.657   4.221 -0.0803  0.0575  0.1850
    1DIPC   C1B29637  28.960   6.528   3.434  0.5165 -0.1943 -0.0056
    1DIPC   D2B29638  28.909   6.572   3.821  0.0304 -0.2213 -0.2701
    1DIPC   D3B29639  28.723   6.192   3.719 -0.0383  0.0306  0.1997
    1DIPC   C4B29640  28.901   5.786   3.687  0.1598 -0.0894 -0.0384
    1DIPC   NC329641   7.734  12.874   2.916 -0.0450  0.0415  0.0481
    1DIPC   PO429642   8.258  12.893   2.970 -0.0687  0.1869 -0.0043
    1DIPC   GL129643   8.040  13.099   3.293  0.2528 -0.2324  0.2199
    1DIPC   GL229644   7.733  13.041   3.357  0.2426 -0.0520  0.1274
    1DIPC   C1A29645   7.855  13.251   3.819 -0.7407  0.1065 -0.0625
    1DIPC   D2A29646   8.005  13.175   4.285 -0.0155 -0.0870  0.0176
    1DIPC   D3A29647   8.372  13.057   4.410  0.2431 -0.0752  0.1172
    1DIPC   C4A29648   8.529  13.177   4.806  0.3108 -0.0805  0.2285
    1DIPC   C1B29649   7.728  12.683   3.681 -0.1582  0.0278 -0.0039
    1DIPC   D2B29650   7.763  12.749   4.172  0.5932  0.0645  0.0606
    1DIPC   D3B29651   7.428  12.982   3.918  0.5135  0.0661 -0.1289
    1DIPC   C4B29652   7.209  13.150   4.208 -0.1889  0.2176  0.0326
    1DIPC   NC329653   1.072  28.275   3.158  0.2148  0.4019 -0.0872
    1DIPC   PO429654   1.473  28.301   3.514  0.0926  0.0702  0.2681
    1DIPC   GL129655   1.655  28.109   3.908 -0.0524 -0.3198  0.1541
    1DIPC   GL229656   1.925  28.258   3.925  0.4385  0.0272 -0.0261
    1DIPC   C1A29657   1.539  28.033   4.197 -0.0579 -0.0441 -0.1493
    1DIPC   D2A29658   1.383  27.839   4.604 -0.0473 -0.0647 -0.2429
    1DIPC   D3A29659   1.723  27.625   4.524 -0.0845  0.2165  0.1612
    1DIPC   C4A29660   1.979  27.535   4.836  0.0256 -0.0226  0.0887
    1DIPC   C1B29661   1.710  28.463   4.308  0.0447 -0.3714 -0.3674
    1DIPC   D2B29662   1.417  28.406   4.680 -0.0637 -0.0125 -0.1755
    1DIPC   D3B29663   1.165  28.271   4.969  0.2336  0.0232  0.2440
    1DIPC   C4B29664   0.730  28.313   4.797  0.1662  0.1171  0.3944
    1DIPC   NC329665   0.642  24.686   2.555  0.1106  0.0697 -0.1799
    1DIPC   PO429666   1.006  24.524   2.253 -0.0636  0.3128 -0.1727
    1DIPC   GL129667   1.026  24.385   2.657 -0.0365 -0.0751 -0.0104
    1DIPC   GL229668   0.998  24.033   2.708 -0.0333 -0.2140  0.0868
    1DIPC   C1A29669   1.441  24.135   2.972  0.2845 -0.1592  0.1234
    1DIPC   D2A29670   1.636  24.201   3.458  0.1619  0.1050  0.0467
    1DIPC   D3A29671   1.798  23.794   3.615  0.1637  0.0736 -0.2803
    1DIPC   C4A29672   2.095  23.545   3.458 -0.2179 -0.1268  0.2424
    1DIPC   C1B29673   0.936  24.225   3.129 -0.0357  0.1468  0.0719
    1DIPC   D2B29674   1.112  24.415   3.475  0.1164  0.4671 -0.2285
    1DIPC   D3B29675   0.851  24.614   3.854 -0.2970 -0.0145 -0.0377
    1DIPC   C4B29676   0.623  24.253   4.015 -0.1510 -0.0510 -0.0993
    1DIPC   NC329677   8.567   5.795   2.999 -0.3105 -0.0830 -0.2140
    1DIPC   PO429678   8.669   6.033   3.319  0.0821  0.1813  0.2978
    1DIPC   GL129679   8.671   5.794   3.726 -0.1534  0.0301  0.3384
    1DIPC   GL229680   8.969   5.892   3.843  0.0086 -0.1377 -0.2321
    1DIPC   C1A29681   8.420   5.700   4.004 -0.1780 -0.2150 -0.0959
    1DIPC   D2A29682   8.131   5.447   4.216  0.3813  0.2205 -0.2604
    1DIPC   D3A29683   7.958   5.538   3.874 -0.3813  0.0492  0.0923
    1DIPC   C4A29684   7.945   5.417   3.403  0.1689 -0.2766 -0.2641
    1DIPC   C1B29685   9.012   5.578   4.196  0.0796 -0.0593 -0.0066
    1DIPC   D2B29686   8.857   5.414   4.527  0.2184  0.1374  0.3736
    1DIPC   D3B29687   9.176   5.118   4.619 -0.0509 -0.2967  0.1399
    1DIPC   C4B29688   9.432   5.164   5.060  0.1788  0.2772  0.0349
    1DIPC   NC329689   1.897  19.616   1.392  0.3031 -0.5954 -0.0140
    1DIPC   PO429690   1.650  19.931   1.634  0.0962  0.1450 -0.2082
    1DIPC   GL129691   1.748  20.189   1.964 -0.0670  0.0021 -0.1538
    1DIPC   GL229692   2.041  20.120   2.220 -0.0537  0.0382  0.0503
    1DIPC   C1A29693   1.554  20.345   2.334  0.0873 -0.2670  0.3745
    1DIPC   D2A29694   1.581  20.535   2.712  0.1527 -0.3250  0.0310
    1DIPC   D3A29695   1.362  20.315   2.846  0.1925 -0.2429 -0.5090
    1DIPC   C4A29696   1.512  20.175   3.121 -0.1724  0.1048  0.0154
    1DIPC   C1B29697   1.948  19.763   2.308  0.1090  0.1393 -0.0258
    1DIPC   D2B29698   2.205  19.593   2.615  0.0433 -0.0772 -0.1892
    1DIPC   D3B29699   2.421  19.477   2.989 -0.0888  0.0047 -0.1509
    1DIPC   C4B29700   2.430  19.582   3.522 -0.3771  0.1686 -0.1438
    1DIPC   NC329701  19.131   2.582   3.123 -0.1271 -0.0192  0.0693
    1DIPC   PO429702  18.655   2.551   3.198 -0.3580  0.0324  0.1346
    1DIPC   GL129703  18.505   2.460   3.659  0.0664 -0.0567  0.2080
    1DIPC   GL229704  18.257   2.443   3.946 -0.1498  0.0755  0.1151
    1DIPC   C1A29705  18.761   2.260   3.979  0.0552 -0.0874 -0.2529
    1DIPC   D2A29706  18.943   2.079   4.261 -0.1981  0.1310 -0.2645
    1DIPC   D3A29707  19.072   1.926   4.647  0.2634  0.0280  0.1359
    1DIPC   C4A29708  19.010   2.199   5.010  0.1588  0.1051 -0.1762
    1DIPC   C1B29709  18.533   2.537   4.321 -0.0618 -0.2022 -0.1408
    1DIPC   D2B29710  18.831   2.450   4.635 -0.0719 -0.0985  0.4189
    1DIPC   D3B29711  19.064   2.607   4.304 -0.0854 -0.1938 -0.0699
    1DIPC   C4B29712  18.770   2.919   4.089 -0.1049  0.2626 -0.4673
    1DIPC   NC329713  23.263  24.622   2.606  0.1282 -0.1275 -0.0894
    1DIPC   PO429714  23.373  24.595   2.972  0.1391  0.3943  0.1294
    1DIPC   GL129715  23.129  24.512   3.235  0.2726  0.0953  0.0943
    1DIPC   GL229716  22.780  24.439   3.340  0.0332  0.0997  0.2071
    1DIPC   C1A29717  23.173  24.184   3.651  0.1097 -0.4281  0.0660
    1DIPC   D2A29718  22.899  24.072   4.008 -0.2000 -0.3084 -0.1915
    1DIPC   D3A29719  23.053  23.874   4.378 -0.2192 -0.0169 -0.1689
    1DIPC   C4A29720  22.945  23.808   4.763 -0.0220  0.1372 -0.0722
    1DIPC   C1B29721  22.584  24.652   3.678  0.0545 -0.2938 -0.2593
    1DIPC   D2B29722  22.193  24.612   3.948  0.3175 -0.0746 -0.2316
    1DIPC   D3B29723  22.535  24.455   4.205 -0.0493  0.0818  0.0549
    1DIPC   C4B29724  22.511  24.005   4.304  0.1636 -0.0817 -0.2240
    1DIPC   NC329725  24.546  14.041   1.975  0.4460  0.1165  0.2167
    1DIPC   PO429726  24.908  13.750   1.750  0.0562 -0.0138 -0.0067
    1DIPC   GL129727  24.778  13.752   2.292 -0.1109  0.3282  0.0035
    1DIPC   GL229728  24.461  13.657   2.379 -0.1015  0.1417  0.0786
    1DIPC   C1A29729  24.972  13.578   2.626 -0.0167  0.1731 -0.1848
    1DIPC   D2A29730  24.876  13.310   2.999 -0.0205 -0.0302  0.0938
    1DIPC   D3A29731  24.517  13.479   2.893 -0.1395 -0.2476  0.2557
    1DIPC   C4A29732  24.231  13.744   3.214 -0.1406 -0.2463  0.2223
    1DIPC   C1B29733  24.106  13.713   2.675  0.0114 -0.1551 -0.1118
    1DIPC   D2B29734  23.842  13.517   2.975  0.0309 -0.4301 -0.0405
    1DIPC   D3B29735  23.493  13.591   2.909  0.2165 -0.0917 -0.1741
    1DIPC   C4B29736  23.289  13.926   2.932 -0.0045 -0.2481 -0.2566
    1DIPC   NC329737   6.645  11.045   3.306  0.0262  0.0117 -0.0394
    1DIPC   PO429738   6.990  10.718   3.338  0.1955 -0.2893 -0.5401
    1DIPC   GL129739   6.875  10.794   3.768  0.2704  0.3049  0.1433
    1DIPC   GL229740   6.820  11.086   3.789 -0.1439  0.0643 -0.1934
    1DIPC   C1A29741   7.032  10.782   4.121 -0.0408 -0.1513  0.0964
    1DIPC   D2A29742   7.325  10.708   4.440  0.2376  0.2449 -0.0324
    1DIPC   D3A29743   7.425  11.129   4.757 -0.1241 -0.1282  0.1501
    1DIPC   C4A29744   7.164  11.467   4.753  0.2246  0.0758  0.0781
    1DIPC   C1B29745   6.828  11.239   4.227 -0.1633  0.1415 -0.2071
    1DIPC   D2B29746   6.968  11.032   4.553  0.0581 -0.2537 -0.1962
    1DIPC   D3B29747   6.905  11.114   4.995 -0.0985  0.0724 -0.0435
    1DIPC   C4B29748   6.616  10.781   5.245  0.0035 -0.0772 -0.0510
    1DIPC   NC329749  20.869  28.796   2.493  0.0887 -0.0440  0.1724
    1DIPC   PO429750  21.006  28.847   2.891  0.0376 -0.0119  0.0267
    1DIPC   GL129751  20.987  29.153   3.169  0.1018  0.1229 -0.4867
    1DIPC   GL229752  20.677  29.173   3.253 -0.1370 -0.4527  0.3786
    1DIPC   C1A29753  21.121  29.385   3.579 -0.1885  0.3482  0.0716
    1DIPC   D2A29754  21.278  29.705   3.919 -0.2508 -0.0675  0.3818
    1DIPC   D3A29755  21.102  29.477   4.278 -0.0414 -0.0715  0.1261
    1DIPC   C4A29756  21.078  29.344   4.611 -0.1240 -0.1693  0.1160
    1DIPC   C1B29757  20.917  28.900   3.584  0.1847 -0.2167 -0.3210
    1DIPC   D2B29758  21.375  28.774   3.747  0.0467 -0.0217 -0.4270
    1DIPC   D3B29759  21.470  29.067   3.762  0.0422 -0.1218  0.1703
    1DIPC   C4B29760  21.479  29.135   3.327 -0.1293  0.0398 -0.0054
    1DIPC   NC329761  25.302   9.731   1.763 -0.3177 -0.0086 -0.0138
    1DIPC   PO429762  25.449   9.874   2.112 -0.1323 -0.2150  0.1109
    1DIPC   GL129763  25.624  10.010   2.501  0.0255 -0.3482  0.0557
    1DIPC   GL229764  25.846  10.176   2.544 -0.1001 -0.0083  0.0234
    1DIPC   C1A29765  25.474  10.092   2.887 -0.1671 -0.4338 -0.1512
    1DIPC   D2A29766  25.119  10.085   3.020  0.0172 -0.1300  0.0503
    1DIPC   D3A29767  25.376  10.201   3.398 -0.1500 -0.0184 -0.0467
    1DIPC   C4A29768  25.695  10.434   3.483  0.1017  0.1101 -0.4749
    1DIPC   C1B29769  26.063  10.245   2.812  0.1324 -0.1183 -0.2304
    1DIPC   D2B29770  26.029  10.462   3.133  0.0351 -0.0860  0.3167
    1DIPC   D3B29771  26.174  10.228   3.382  0.1117  0.2188 -0.0331
    1DIPC   C4B29772  26.560  10.233   3.457 -0.0735 -0.1053 -0.2888
    1DIPC   NC329773   2.270  23.920   2.012  0.3558  0.1342 -0.4276
    1DIPC   PO429774   2.046  23.548   2.098 -0.0661  0.1773 -0.0456
    1DIPC   GL129775   2.236  23.668   2.540  0.1122  0.1205 -0.2477
    1DIPC   GL229776   2.308  23.961   2.524  0.0701 -0.0165 -0.4108
    1DIPC   C1A29777   2.380  23.685   3.010 -0.1681 -0.2308 -0.1041
    1DIPC   D2A29778   2.603  23.517   3.313  0.0034 -0.2365  0.0444
    1DIPC   D3A29779   2.554  23.813   3.727  0.0078  0.3627  0.0949
    1DIPC   C4A29780   2.377  23.667   3.974 -0.0951 -0.0540 -0.1323
    1DIPC   C1B29781   2.456  24.126   2.900 -0.1962  0.2255 -0.1870
    1DIPC   D2B29782   2.674  24.017   3.254 -0.0272 -0.1999 -0.0753
    1DIPC   D3B29783   2.659  24.275   3.577  0.1414  0.0946  0.3126
    1DIPC   C4B29784   2.459  24.517   3.893 -0.0375 -0.0921 -0.0190
    1DIPC   NC329785  11.359   2.449   3.520 -0.0915 -0.0927  0.1271
    1DIPC   PO429786  11.161   2.693   3.749  0.3292 -0.1895  0.2589
    1DIPC   GL129787  11.070   2.866   4.223 -0.0572 -0.1608 -0.1283
    1DIPC   GL229788  10.912   3.219   4.253 -0.2637 -0.0108  0.1560
    1DIPC   C1A29789  11.062   2.811   4.644 -0.2513 -0.2364  0.1005
    1DIPC   D2A29790  10.711   2.769   5.026 -0.1701  0.1529  0.2921
    1DIPC   D3A29791  11.097   2.688   5.223 -0.1689 -0.2118  0.3824
    1DIPC   C4A29792  11.180   3.037   5.492  0.0579 -0.1331 -0.0440
    1DIPC   C1B29793  10.573   2.957   4.388 -0.0712  0.0514 -0.0343
    1DIPC   D2B29794  10.105   2.879   4.185 -0.0972  0.1529  0.1473
    1DIPC   D3B29795   9.947   2.727   4.579  0.4102  0.1083  0.0424
    1DIPC   C4B29796   9.636   2.893   4.907 -0.0468 -0.1940  0.0929
    1DIPC   NC329797  10.775   2.750   3.414 -0.3664 -0.0766  0.0084
    1DIPC   PO429798  10.681   2.309   3.592 -0.0602 -0.0060  0.0691
    1DIPC   GL129799  10.555   2.186   3.993  0.0295  0.1878  0.2455
    1DIPC   GL229800  10.337   2.044   3.935  0.3484  0.0657 -0.3005
    1DIPC   C1A29801  10.630   2.089   4.357  0.4724 -0.0485 -0.2284
    1DIPC   D2A29802  10.704   1.979   4.733 -0.0434 -0.2307 -0.1730
    1DIPC   D3A29803  10.953   2.318   4.713  0.0089 -0.2632  0.0136
    1DIPC   C4A29804  11.348   2.376   4.875 -0.3284  0.0918  0.0199
    1DIPC   C1B29805  10.167   2.308   4.276  0.4517  0.6332 -0.2708
    1DIPC   D2B29806  10.476   2.512   4.577  0.0618  0.2527 -0.1164
    1DIPC   D3B29807  10.355   2.369   4.894 -0.1569 -0.1772  0.4005
    1DIPC   C4B29808  10.658   2.303   5.162  0.1286 -0.0221 -0.2937
    1DIPC   NC329809   5.167  20.474   1.500  0.1549 -0.2167 -0.1626
    1DIPC   PO429810   5.337  20.891   1.819  0.0249  0.1401 -0.0305
    1DIPC   GL129811   5.096  20.917   2.232 -0.2637  0.1601  0.1487
    1DIPC   GL229812   4.818  20.668   2.269 -0.2133 -0.1378  0.1514
    1DIPC   C1A29813   4.969  20.873   2.704 -0.1693  0.2452  0.0620
    1DIPC   D2A29814   4.998  21.091   3.163 -0.3073  0.0068 -0.1955
    1DIPC   D3A29815   4.876  20.853   3.431  0.1230  0.0703  0.3978
    1DIPC   C4A29816   4.952  20.409   3.690  0.0416 -0.1489  0.1081
    1DIPC   C1B29817   4.507  20.686   2.611  0.2514  0.0589 -0.0514
    1DIPC   D2B29818   4.058  20.424   2.660  0.6039 -0.2235 -0.1445
    1DIPC   D3B29819   4.205  20.063   2.395 -0.0575  0.0688  0.0910
    1DIPC   C4B29820   4.448  20.202   2.121 -0.4871  0.0177 -0.1585
    1DIPC   NC329821   6.899   7.341   3.878  0.1096 -0.1152  0.2190
    1DIPC   PO429822   6.525   7.221   3.840  0.2086 -0.2806  0.0294
    1DIPC   GL129823   6.603   7.116   4.205 -0.2030  0.0980 -0.0195
    1DIPC   GL229824   6.685   6.730   4.236  0.0787 -0.3133  0.2631
    1DIPC   C1A29825   6.545   6.990   4.718 -0.0571 -0.1893 -0.2400
    1DIPC   D2A29826   6.119   6.886   4.840  0.0215  0.0790 -0.0644
    1DIPC   D3A29827   6.029   6.746   5.218  0.2133  0.1583  0.1149
    1DIPC   C4A29828   6.136   6.329   5.215  0.4178  0.2061 -0.1069
    1DIPC   C1B29829   6.259   6.761   4.352 -0.2875 -0.1810 -0.0292
    1DIPC   D2B29830   6.141   7.126   4.366 -0.1814  0.0138 -0.2613
    1DIPC   D3B29831   6.260   7.413   4.734 -0.1758 -0.2116  0.1779
    1DIPC   C4B29832   6.628   7.671   4.595  0.1750 -0.3027  0.1223
    1DIPC   NC329833  20.654   5.868   3.479  0.2606  0.1295  0.0393
    1DIPC   PO429834  20.233   5.561   3.585  0.2171  0.0347  0.1984
    1DIPC   GL129835  20.382   5.459   3.934 -0.1324  0.2217 -0.0322
    1DIPC   GL229836  20.605   5.662   3.973  0.1575 -0.1110  0.0942
    1DIPC   C1A29837  20.197   5.438   4.258  0.1527 -0.2010  0.0004
    1DIPC   D2A29838  20.156   5.512   4.696  0.1065 -0.0887  0.2572
    1DIPC   D3A29839  20.173   5.792   4.874 -0.2617  0.1309 -0.0769
    1DIPC   C4A29840  20.252   5.746   5.337  0.1386  0.0554  0.4888
    1DIPC   C1B29841  20.586   5.773   4.460 -0.1012  0.1069 -0.3776
    1DIPC   D2B29842  20.617   5.986   4.900 -0.0776  0.1359  0.1075
    1DIPC   D3B29843  20.813   5.765   5.250  0.2057 -0.3344 -0.1930
    1DIPC   C4B29844  21.273   5.818   5.304 -0.5221  0.1564  0.0330
    1DIPC   NC329845  17.579  29.761   3.501  0.2736 -0.0178  0.0903
    1DIPC   PO429846  17.580  30.051   3.493 -0.1285  0.3478  0.4730
    1DIPC   GL129847  17.460  29.998   3.910  0.1096 -0.1796  0.3277
    1DIPC   GL229848  17.348  29.767   3.975  0.2983 -0.3386 -0.2794
    1DIPC   C1A29849  17.385  30.279   4.306 -0.2480 -0.1163 -0.3345
    1DIPC   D2A29850  17.104  30.440   4.582  0.0296  0.1082  0.1317
    1DIPC   D3A29851  16.848  30.316   4.353  0.1181 -0.0356 -0.1009
    1DIPC   C4A29852  16.523  30.018   4.491  0.0588 -0.2330 -0.0140
    1DIPC   C1B29853  17.486  29.512   4.208  0.0054  0.4030  0.1185
    1DIPC   D2B29854  17.686  29.678   4.558  0.1077 -0.0736  0.1270
    1DIPC   D3B29855  17.406  29.726   4.908 -0.1629 -0.0270 -0.1011
    1DIPC   C4B29856  17.146  29.491   5.133 -0.0362  0.0240  0.0074
    1DIPC   NC329857  10.664  22.123   2.225 -0.4211  0.0227  0.3378
    1DIPC   PO429858  10.206  22.388   2.164  0.0787  0.2073 -0.1136
    1DIPC   GL129859   9.980  22.605   2.532  0.0991 -0.1597  0.1497
    1DIPC   GL229860   9.904  22.318   2.561  0.0843  0.0548  0.4637
    1DIPC   C1A29861   9.961  22.711   2.972 -0.2472  0.0845  0.1287
    1DIPC   D2A29862  10.305  22.857   3.202  0.1113  0.0818  0.1717
    1DIPC   D3A29863  10.248  22.811   3.711 -0.1329  0.2691  0.0421
    1DIPC   C4A29864  10.357  22.767   4.118  0.1104 -0.1738 -0.0831
    1DIPC   C1B29865   9.707  22.289   2.910  0.0466 -0.2911  0.0207
    1DIPC   D2B29866   9.679  22.170   3.222 -0.0276  0.0102  0.2223
    1DIPC   D3B29867  10.123  22.247   3.256  0.0242  0.0217 -0.0357
    1DIPC   C4B29868  10.339  22.297   2.935 -0.1852  0.0147 -0.0988
    1DIPC   NC329869  10.260  16.682   2.219  0.0647  0.0785  0.0263
    1DIPC   PO429870   9.853  16.819   2.509 -0.3121 -0.2209 -0.0171
    1DIPC   GL129871   9.689  16.839   2.962 -0.1711  0.3565 -0.2013
    1DIPC   GL229872   9.373  16.885   2.928 -0.1622  0.2781 -0.1813
    1DIPC   C1A29873   9.700  17.090   3.287  0.0625 -0.1383  0.0139
    1DIPC   D2A29874   9.640  17.405   3.577 -0.1901  0.0774  0.0274
    1DIPC   D3A29875  10.003  17.397   3.840 -0.1137  0.3842  0.1058
    1DIPC   C4A29876   9.984  17.778   4.132  0.0150  0.1641 -0.1798
    1DIPC   C1B29877   9.398  16.697   3.354  0.0365 -0.1397  0.0218
    1DIPC   D2B29878   9.668  16.704   3.651  0.0263  0.1345 -0.5553
    1DIPC   D3B29879   9.944  16.590   3.306  0.2849 -0.1427 -0.0262
    1DIPC   C4B29880  10.150  16.924   3.066  0.1179 -0.2892 -0.2115
    1DIPC   NC329881  27.340   5.116   2.833  0.1980  0.0631  0.1193
    1DIPC   PO429882  27.038   4.785   2.869  0.0713  0.4775  0.0055
    1DIPC   GL129883  26.979   4.815   3.241  0.0378  0.1224  0.0338
    1DIPC   GL229884  27.215   4.837   3.382  0.2551  0.2315  0.0209
    1DIPC   C1A29885  26.716   4.819   3.656  0.1323  0.1802  0.0968
    1DIPC   D2A29886  26.538   4.945   4.037 -0.0064 -0.1225 -0.0583
    1DIPC   D3A29887  26.608   4.485   4.245  0.2454 -0.2559 -0.3662
    1DIPC   C4A29888  26.876   4.438   4.660  0.1409  0.3445 -0.0501
    1DIPC   C1B29889  27.423   4.859   3.652 -0.1811  0.0552 -0.0869
    1DIPC   D2B29890  27.527   4.783   4.120 -0.0826 -0.2249  0.3086
    1DIPC   D3B29891  27.671   4.407   4.404 -0.1114  0.3554 -0.0440
    1DIPC   C4B29892  28.023   4.495   4.554  0.1438 -0.3013  0.3021
    1DIPC   NC329893  23.103  26.054   2.966 -0.1317 -0.4253  0.0161
    1DIPC   PO429894  22.697  25.861   3.059  0.0470  0.1443  0.0763
    1DIPC   GL129895  22.742  25.879   3.478 -0.0777 -0.0957 -0.2576
    1DIPC   GL229896  22.448  25.887   3.624  0.2211 -0.0737  0.1877
    1DIPC   C1A29897  22.916  25.709   3.794 -0.0674  0.0094 -0.1879
    1DIPC   D2A29898  22.845  25.496   4.288 -0.2709  0.1074 -0.0565
    1DIPC   D3A29899  23.016  25.798   4.517  0.2077  0.1212  0.0913
    1DIPC   C4A29900  22.907  26.239   4.600  0.0814 -0.1156 -0.1571
    1DIPC   C1B29901  22.307  25.614   3.877 -0.0419  0.0138 -0.0083
    1DIPC   D2B29902  22.299  25.515   4.331 -0.3283  0.0205 -0.0105
    1DIPC   D3B29903  22.477  25.483   4.689 -0.0261  0.0019  0.0356
    1DIPC   C4B29904  22.662  25.104   4.707 -0.0469  0.2980  0.0330
    1DIPC   NC329905   2.939  13.902   2.195 -0.2249  0.1173  0.1658
    1DIPC   PO429906   3.299  13.631   2.307  0.1243 -0.1452  0.1057
    1DIPC   GL129907   3.281  13.714   2.616  0.0944  0.0110 -0.3269
    1DIPC   GL229908   3.285  14.052   2.578  0.0919 -0.0120 -0.2483
    1DIPC   C1A29909   3.105  13.840   2.994  0.3206 -0.2441  0.4175
    1DIPC   D2A29910   2.831  13.687   3.340  0.0836  0.0122 -0.1539
    1DIPC   D3A29911   2.831  13.262   3.509 -0.2564  0.0739 -0.0531
    1DIPC   C4A29912   2.743  13.081   3.953 -0.0228 -0.0203 -0.0865
    1DIPC   C1B29913   3.066  14.314   2.916  0.1012 -0.0157  0.1659
    1DIPC   D2B29914   2.841  14.192   3.348 -0.0071  0.2828 -0.0804
    1DIPC   D3B29915   2.925  14.527   3.622 -0.3769  0.1682 -0.3306
    1DIPC   C4B29916   2.898  14.554   4.104  0.1726 -0.1329 -0.2753
    1DIPC   NC329917   2.539  30.030   3.850  0.1225  0.3868 -0.1727
    1DIPC   PO429918   2.131  29.882   3.565  0.1031  0.1702 -0.0666
    1DIPC   GL129919   2.073  30.180   3.968 -0.2013  0.3190  0.1568
    1DIPC   GL229920   2.251  30.394   4.106 -0.0335 -0.5126 -0.0155
    1DIPC   C1A29921   1.771  30.356   4.214  0.0657 -0.3165  0.1162
    1DIPC   D2A29922   1.761  30.472   4.658  0.1161  0.2522  0.1084
    1DIPC   D3A29923   1.873  30.833   4.817  0.1994  0.0662 -0.3131
    1DIPC   C4A29924   2.134  30.760   5.028  0.0537  0.5348  0.0542
    1DIPC   C1B29925   2.263  30.261   4.552 -0.1294 -0.1769  0.0886
    1DIPC   D2B29926   2.086  30.278   4.996 -0.0185 -0.2737 -0.1003
    1DIPC   D3B29927   2.252  29.898   4.915 -0.1067 -0.1548  0.0890
    1DIPC   C4B29928   2.203  29.517   5.179 -0.4828  0.0451 -0.1143
    1DIPC   NC329929  24.905  12.663   2.449  0.2764  0.0054 -0.1410
    1DIPC   PO429930  25.258  12.343   2.621  0.0373  0.1704 -0.0523
    1DIPC   GL129931  25.246  12.453   3.016 -0.1604 -0.0463 -0.0886
    1DIPC   GL229932  25.081  12.786   2.927  0.1865  0.0327 -0.2050
    1DIPC   C1A29933  25.409  12.212   3.382 -0.0318  0.1118  0.3101
    1DIPC   D2A29934  25.458  12.203   3.906  0.2555  0.1863 -0.1853
    1DIPC   D3A29935  25.787  12.327   4.128 -0.1094 -0.0597 -0.1611
    1DIPC   C4A29936  26.164  12.540   3.968  0.0042 -0.0275  0.2272
    1DIPC   C1B29937  25.277  12.826   3.370 -0.0187  0.0081  0.1304
    1DIPC   D2B29938  25.304  13.029   3.818  0.1442 -0.2738  0.2727
    1DIPC   D3B29939  25.371  12.731   4.101 -0.0101  0.1879  0.0204
    1DIPC   C4B29940  25.177  12.617   4.475  0.2534 -0.0528  0.0990
    1DIPC   NC329941  21.376   5.477   2.894  0.0357  0.0460  0.1948
    1DIPC   PO429942  21.342   5.777   3.274 -0.0202 -0.1257  0.0193
    1DIPC   GL129943  21.087   5.616   3.622  0.0397  0.0066  0.3087
    1DIPC   GL229944  21.035   5.912   3.784  0.1369 -0.1446  0.0381
    1DIPC   C1A29945  20.982   5.254   3.882  0.0056 -0.3210 -0.1260
    1DIPC   D2A29946  21.428   5.039   4.123  0.1621  0.1137 -0.1107
    1DIPC   D3A29947  21.471   4.796   4.461  0.0661  0.0660 -0.0676
    1DIPC   C4A29948  21.755   4.463   4.443  0.1404  0.2239 -0.1340
    1DIPC   C1B29949  21.032   5.848   4.165  0.1662 -0.0307  0.2246
    1DIPC   D2B29950  21.093   5.370   4.356 -0.0332  0.1517  0.1060
    1DIPC   D3B29951  21.298   5.225   4.649  0.3191 -0.1213  0.0707
    1DIPC   C4B29952  21.545   5.516   4.919 -0.1935 -0.0797  0.1535
    1DIPC   NC329953  25.347  16.018   2.012 -0.0309  0.1967 -0.0141
    1DIPC   PO429954  24.999  15.775   2.227  0.0431  0.1286  0.1036
    1DIPC   GL129955  24.858  15.844   2.590  0.0130 -0.5156 -0.4365
    1DIPC   GL229956  24.816  16.195   2.627 -0.2541  0.3516 -0.2424
    1DIPC   C1A29957  24.798  15.614   3.033 -0.2974 -0.0179 -0.2335
    1DIPC   D2A29958  24.936  15.429   3.346 -0.4438  0.3586  0.0642
    1DIPC   D3A29959  24.437  15.420   3.529 -0.1096 -0.2216  0.1559
    1DIPC   C4A29960  24.053  15.586   3.748  0.0676 -0.1703 -0.0485
    1DIPC   C1B29961  24.621  16.274   3.117 -0.2555 -0.1246  0.1919
    1DIPC   D2B29962  24.667  16.568   3.421  0.1409  0.0466  0.1431
    1DIPC   D3B29963  24.622  16.197   3.613  0.3578  0.1404  0.0596
    1DIPC   C4B29964  24.439  15.873   3.359  0.2167  0.1243 -0.5693
    1DIPC   NC329965  29.660  16.535   2.119  0.0316 -0.1912 -0.1125
    1DIPC   PO429966  29.464  16.192   1.803  0.1278 -0.0094  0.1344
    1DIPC   GL129967  29.617  15.968   2.180  0.1148  0.1965  0.2468
    1DIPC   GL229968  29.432  15.915   2.422  0.0538  0.1720  0.0177
    1DIPC   C1A29969  29.981  15.740   2.471  0.1299  0.0093 -0.1580
    1DIPC   D2A29970  30.372  15.557   2.295 -0.0162 -0.4375  0.1497
    1DIPC   D3A29971  30.357  15.344   2.644  0.3444 -0.1881 -0.2408
    1DIPC   C4A29972  30.612  15.198   2.942 -0.2270 -0.1275 -0.0200
    1DIPC   C1B29973  29.236  16.074   2.759  0.0712 -0.0048 -0.0383
    1DIPC   D2B29974  28.864  16.338   2.950  0.2781  0.1911 -0.1244
    1DIPC   D3B29975  28.930  16.747   3.166 -0.1920  0.2741 -0.0030
    1DIPC   C4B29976  29.072  16.852   3.569  0.3226  0.1887  0.1782
    1DIPC   NC329977  30.011   4.357   2.697  0.0298  0.1964  0.0479
    1DIPC   PO429978  29.665   3.944   2.661 -0.0202  0.2757  0.2090
    1DIPC   GL129979  29.505   4.029   3.089 -0.1867 -0.0088  0.1775
    1DIPC   GL229980  29.658   3.852   3.426  0.0626  0.2274  0.1549
    1DIPC   C1A29981  29.584   4.408   3.223  0.2252 -0.0444  0.1597
    1DIPC   D2A29982  29.331   4.791   3.182  0.0510 -0.0283 -0.0147
    1DIPC   D3A29983  29.582   5.192   3.440  0.0607  0.1643  0.0147
    1DIPC   C4A29984  29.308   5.300   3.841  0.3987 -0.0189  0.1537
    1DIPC   C1B29985  29.585   4.211   3.680  0.0588 -0.1068 -0.0538
    1DIPC   D2B29986  29.654   4.369   4.077  0.2565 -0.1770 -0.2931
    1DIPC   D3B29987  30.138   4.179   4.180 -0.0770 -0.2208 -0.4113
    1DIPC   C4B29988  30.378   4.563   4.240 -0.1589  0.0886 -0.2214
    1DIPC   NC329989  19.003   8.951   2.589  0.1826 -0.1458 -0.2762
    1DIPC   PO429990  18.581   8.816   2.461 -0.1737  0.0959  0.0425
    1DIPC   GL129991  18.663   8.741   2.896  0.0603 -0.0098  0.5230
    1DIPC   GL229992  19.026   8.741   3.026  0.1194  0.1973  0.0949
    1DIPC   C1A29993  18.678   8.676   3.353 -0.1288  0.5061  0.0132
    1DIPC   D2A29994  18.779   8.574   3.695 -0.1730  0.2616 -0.0229
    1DIPC   D3A29995  18.976   8.923   3.819  0.1159  0.1772  0.1349
    1DIPC   C4A29996  19.046   8.907   4.195 -0.2068  0.0281  0.1046
    1DIPC   C1B29997  19.272   8.835   3.314 -0.0693  0.0562 -0.2230
    1DIPC   D2B29998  19.511   8.917   3.736  0.1178  0.0816 -0.0242
    1DIPC   D3B29999  19.666   9.245   4.025  0.0774 -0.0395 -0.2167
    1DIPC   C4B30000  19.475   9.304   4.324  0.2819 -0.0295  0.0959
    1DIPC   NC330001   9.343  28.107   3.108  0.0518  0.2039 -0.0042
    1DIPC   PO430002   9.494  28.200   3.496  0.1224  0.1323 -0.0140
    1DIPC   GL130003   9.732  28.096   3.876  0.0126  0.1757 -0.1298
    1DIPC   GL230004   9.394  28.091   3.985  0.1974 -0.1521 -0.0190
    1DIPC   C1A30005  10.020  27.861   4.094 -0.0428 -0.5446  0.2266
    1DIPC   D2A30006  10.184  27.463   4.254  0.1100 -0.1027 -0.2308
    1DIPC   D3A30007  10.169  27.418   4.685 -0.1095  0.1630  0.2656
    1DIPC   C4A30008  10.253  27.769   4.955 -0.3833  0.1872  0.1094
    1DIPC   C1B30009   9.124  28.222   4.428  0.2014 -0.1188  0.1808
    1DIPC   D2B30010   9.004  28.020   4.776  0.2683  0.1109  0.2107
    1DIPC   D3B30011   8.988  28.354   4.992 -0.0401 -0.1804 -0.1316
    1DIPC   C4B30012   8.719  28.394   5.322  0.4424 -0.3531 -0.0439
    1DIPC   NC330013  20.491  19.843   2.374 -0.1383 -0.3401  0.3234
    1DIPC   PO430014  20.218  20.164   2.139 -0.1160  0.2553 -0.0174
    1DIPC   GL130015  20.310  20.334   2.601 -0.0774 -0.2535  0.1483
    1DIPC   GL230016  20.433  20.183   2.892 -0.0452  0.0604  0.4473
    1DIPC   C1A30017  20.315  20.678   2.970  0.2819 -0.1172  0.0416
    1DIPC   D2A30018  20.613  20.694   3.350 -0.2630  0.0733  0.2129
    1DIPC   D3A30019  20.328  20.384   3.352  0.1215  0.1141  0.0641
    1DIPC   C4A30020  19.957  20.399   3.526  0.0450 -0.1112  0.0850
    1DIPC   C1B30021  20.022  20.281   3.006  0.0413  0.0964 -0.2507
    1DIPC   D2B30022  19.627  20.201   3.220  0.2971 -0.1124 -0.0468
    1DIPC   D3B30023  19.509  20.224   3.561 -0.1456 -0.2102 -0.0156
    1DIPC   C4B30024  19.364  20.621   3.626 -0.0512 -0.2775 -0.1573
    1DIPC   NC330025   0.958   7.945   2.329  0.1445 -0.0343  0.1043
    1DIPC   PO430026   0.634   7.683   2.642 -0.0304 -0.1497  0.0357
    1DIPC   GL130027   0.602   7.737   3.066 -0.4668  0.2339  0.1935
    1DIPC   GL230028   0.631   8.050   3.115 -0.1169 -0.1178 -0.1893
    1DIPC   C1A30029   0.746   7.634   3.461  0.0746  0.0284 -0.2309
    1DIPC   D2A30030   0.983   7.460   3.899 -0.2925  0.0076 -0.1704
    1DIPC   D3A30031   0.844   7.109   4.300 -0.1397  0.0214  0.0716
    1DIPC   C4A30032   0.843   6.676   4.383  0.0173  0.0160  0.1676
    1DIPC   C1B30033   0.518   8.188   3.518 -0.2260  0.2322 -0.1247
    1DIPC   D2B30034   0.684   8.497   3.867  0.1580 -0.0692  0.3957
    1DIPC   D3B30035   1.100   8.657   3.723  0.1570  0.3153 -0.0823
    1DIPC   C4B30036   1.472   8.791   3.971 -0.3213  0.0406 -0.1161
    1DIPC   NC330037  23.419  27.600   2.846  0.2365 -0.0881  0.1444
    1DIPC   PO430038  23.174  27.962   3.080  0.0162 -0.2048  0.0964
    1DIPC   GL130039  23.239  27.646   3.335 -0.1716 -0.0577 -0.3231
    1DIPC   GL230040  23.056  27.823   3.550  0.2172  0.1800  0.0162
    1DIPC   C1A30041  23.553  27.525   3.650 -0.0624  0.0891  0.0982
    1DIPC   D2A30042  23.827  27.252   3.914  0.0510 -0.0600 -0.1413
    1DIPC   D3A30043  23.803  27.057   4.314  0.2554  0.0653  0.0877
    1DIPC   C4A30044  23.992  27.072   4.692  0.2243 -0.2069  0.1188
    1DIPC   C1B30045  23.006  27.872   3.952  0.0217  0.1144  0.3784
    1DIPC   D2B30046  22.942  27.729   4.356 -0.0407 -0.2773 -0.0269
    1DIPC   D3B30047  22.836  28.006   4.694  0.0417 -0.0662  0.0381
    1DIPC   C4B30048  23.188  27.987   4.957 -0.1541  0.1717  0.0349
    1DIPC   NC330049   8.287   6.999   3.310  0.2569  0.1534 -0.0417
    1DIPC   PO430050   8.009   7.292   3.512  0.1129 -0.0093 -0.0148
    1DIPC   GL130051   7.806   7.130   3.941 -0.2020  0.0131 -0.0797
    1DIPC   GL230052   7.655   6.844   3.956  0.1060  0.1007 -0.1583
    1DIPC   C1A30053   7.954   7.154   4.329 -0.3271 -0.1691 -0.0034
    1DIPC   D2A30054   7.905   7.087   4.777 -0.0995 -0.0475 -0.0677
    1DIPC   D3A30055   7.964   6.716   4.953 -0.3028  0.0113 -0.1616
    1DIPC   C4A30056   7.825   6.619   5.417  0.1001  0.3430 -0.3546
    1DIPC   C1B30057   7.664   6.657   4.409 -0.1103 -0.0813  0.0712
    1DIPC   D2B30058   7.530   6.349   4.762  0.1239 -0.1470  0.0869
    1DIPC   D3B30059   7.823   6.186   5.078  0.3131  0.1607  0.1129
    1DIPC   C4B30060   8.211   5.982   4.896  0.2626  0.0511  0.3496
    1DIPC   NC330061  16.316  21.798   1.876 -0.0697 -0.0502 -0.0938
    1DIPC   PO430062  16.434  21.726   2.343  0.0457 -0.0034 -0.2608
    1DIPC   GL130063  16.221  22.025   2.702 -0.0720  0.2858 -0.1091
    1DIPC   GL230064  16.426  21.946   2.962  0.2986  0.0370 -0.0083
    1DIPC   C1A30065  15.790  21.958   2.909 -0.1077 -0.0324 -0.1588
    1DIPC   D2A30066  15.436  22.118   2.826  0.1086 -0.2366  0.0294
    1DIPC   D3A30067  15.090  22.086   3.130 -0.1982 -0.0911 -0.3229
    1DIPC   C4A30068  14.988  22.001   3.464 -0.1532 -0.1954 -0.1774
    1DIPC   C1B30069  16.416  21.531   2.978  0.0212 -0.0716 -0.3729
    1DIPC   D2B30070  16.305  21.169   3.152  0.3008 -0.1593 -0.2438
    1DIPC   D3B30071  16.379  21.421   3.532 -0.0783 -0.0067  0.1320
    1DIPC   C4B30072  16.360  21.208   3.807  0.0945 -0.1012 -0.0739
    1DIPC   NC330073   6.933  24.183   2.271 -0.1188  0.2752 -0.2518
    1DIPC   PO430074   6.547  24.477   2.001  0.1255 -0.2823 -0.1764
    1DIPC   GL130075   6.602  24.536   2.440 -0.2053  0.1021  0.2210
    1DIPC   GL230076   6.459  24.529   2.654  0.0508  0.2971 -0.2540
    1DIPC   C1A30077   6.946  24.474   2.869  0.3633 -0.0607 -0.1929
    1DIPC   D2A30078   7.374  24.471   3.042 -0.0373 -0.0143  0.2851
    1DIPC   D3A30079   7.413  24.716   3.405 -0.0927 -0.1411 -0.0041
    1DIPC   C4A30080   7.645  24.579   3.691  0.2061  0.1534 -0.1376
    1DIPC   C1B30081   6.452  24.645   3.063 -0.1371 -0.0603 -0.1296
    1DIPC   D2B30082   6.534  24.682   3.477  0.1612  0.4396 -0.0048
    1DIPC   D3B30083   6.119  24.738   3.594 -0.1961  0.2688  0.0096
    1DIPC   C4B30084   5.788  24.302   3.593 -0.1225  0.2022 -0.4984
    1DIPC   NC330085  28.418  11.613   1.796  0.0585  0.1923  0.0439
    1DIPC   PO430086  28.039  11.539   1.944  0.3138  0.1192  0.1455
    1DIPC   GL130087  27.830  11.829   2.188  0.1148  0.0401 -0.0706
    1DIPC   GL230088  27.794  12.121   2.244 -0.1216 -0.0999 -0.1501
    1DIPC   C1A30089  27.767  11.834   2.652 -0.0884  0.0660  0.1880
    1DIPC   D2A30090  27.927  11.803   3.028 -0.5871 -0.0570  0.1858
    1DIPC   D3A30091  27.832  12.191   3.424  0.0443 -0.0266 -0.0920
    1DIPC   C4A30092  27.648  12.103   3.723 -0.0011  0.5172  0.0354
    1DIPC   C1B30093  28.001  12.245   2.689  0.0681 -0.2157 -0.0797
    1DIPC   D2B30094  28.165  12.337   3.089 -0.0140 -0.2790 -0.2284
    1DIPC   D3B30095  28.714  12.410   3.211  0.0047  0.0621 -0.0238
    1DIPC   C4B30096  28.921  12.144   3.202  0.0341  0.0427  0.1102
    1DIPC   NC330097   4.220   0.995   3.013  0.2497  0.1252  0.0037
    1DIPC   PO430098   4.247   0.969   3.518  0.2322 -0.0633  0.0213
    1DIPC   GL130099   3.975   1.334   3.688  0.1896  0.2272  0.3089
    1DIPC   GL230100   3.933   1.176   3.984 -0.1990  0.0533  0.1858
    1DIPC   C1A30101   3.705   1.590   3.916 -0.3387 -0.1509 -0.0161
    1DIPC   D2A30102   3.332   1.718   3.861 -0.0706  0.1367  0.1112
    1DIPC   D3A30103   3.434   1.837   4.232  0.0369 -0.0269  0.1679
    1DIPC   C4A30104   3.849   1.871   4.429  0.1261  0.0566  0.1049
    1DIPC   C1B30105   4.140   1.551   4.146  0.2015 -0.1389  0.1745
    1DIPC   D2B30106   4.539   1.785   4.126  0.2581  0.0688  0.3281
    1DIPC   D3B30107   4.583   1.911   4.600 -0.3133  0.0330  0.1715
    1DIPC   C4B30108   4.785   1.584   4.850 -0.0626 -0.1992 -0.0951
    1DIPC   NC330109  27.686  24.261   2.477 -0.1935  0.1109  0.0786
    1DIPC   PO430110  28.106  24.337   2.586 -0.0764 -0.0924 -0.0690
    1DIPC   GL130111  28.438  24.206   2.896  0.2912 -0.3196 -0.1406
    1DIPC   GL230112  28.292  24.189   3.165  0.1533  0.0212 -0.5625
    1DIPC   C1A30113  28.603  23.795   3.021 -0.0806  0.1522 -0.1449
    1DIPC   D2A30114  28.769  23.368   2.930  0.1966  0.0243  0.0483
    1DIPC   D3A30115  28.442  23.184   3.193 -0.2623  0.1859  0.0118
    1DIPC   C4A30116  28.184  23.148   3.560 -0.2908 -0.3194  0.0236
    1DIPC   C1B30117  27.847  24.164   3.417  0.1890  0.0082  0.0119
    1DIPC   D2B30118  27.470  24.038   3.710  0.0453 -0.0799  0.0053
    1DIPC   D3B30119  27.298  23.813   4.043 -0.2346 -0.3405  0.1435
    1DIPC   C4B30120  27.640  23.497   4.131 -0.0026 -0.3008  0.1014
    1DIPC   NC330121  17.630  10.413   2.444 -0.2552 -0.1119  0.2289
    1DIPC   PO430122  17.231  10.544   2.444  0.3040  0.0465  0.0183
    1DIPC   GL130123  17.281  10.558   2.878  0.1602 -0.1149  0.0337
    1DIPC   GL230124  17.334  10.239   2.953 -0.1764  0.2371  0.2229
    1DIPC   C1A30125  17.021  10.779   3.265  0.2610  0.1446  0.3967
    1DIPC   D2A30126  16.755  10.784   3.620  0.2090  0.0419  0.2673
    1DIPC   D3A30127  16.644  10.314   3.736 -0.0968 -0.1000 -0.0020
    1DIPC   C4A30128  16.775  10.332   4.218 -0.1298  0.4830  0.3092
    1DIPC   C1B30129  17.322  10.403   3.419 -0.0584 -0.1291 -0.0608
    1DIPC   D2B30130  17.312  10.736   3.741 -0.1920  0.1571 -0.0118
    1DIPC   D3B30131  16.885  10.763   4.066 -0.2059  0.1226 -0.0614
    1DIPC   C4B30132  16.874  10.684   4.573 -0.1872  0.0295  0.3304
    1DIPC   NC330133  15.659   3.543   3.812  0.1016 -0.1326 -0.3500
    1DIPC   PO430134  15.398   3.273   3.525 -0.0804 -0.1253 -0.2760
    1DIPC   GL130135  15.527   3.002   3.868  0.3189 -0.1818 -0.1137
    1DIPC   GL230136  15.794   3.098   4.037 -0.0674 -0.0643  0.1944
    1DIPC   C1A30137  15.431   2.925   4.359  0.1979 -0.1821  0.4007
    1DIPC   D2A30138  15.370   2.789   4.750 -0.1545  0.1749  0.0352
    1DIPC   D3A30139  15.567   3.105   4.844  0.1526 -0.0334 -0.3518
    1DIPC   C4A30140  15.439   3.466   5.115 -0.1444  0.0779 -0.1187
    1DIPC   C1B30141  15.758   3.307   4.422  0.3543  0.0981  0.0793
    1DIPC   D2B30142  15.974   3.308   4.836 -0.3124 -0.0500  0.3083
    1DIPC   D3B30143  15.909   3.157   5.192 -0.1473 -0.0085 -0.0851
    1DIPC   C4B30144  15.966   2.747   5.485 -0.1812 -0.0118 -0.1677
    1DIPC   NC330145   2.068  27.242   2.847 -0.0814 -0.0835  0.0010
    1DIPC   PO430146   2.360  27.033   2.942 -0.0438 -0.0547 -0.1146
    1DIPC   GL130147   2.445  26.672   3.222  0.3405 -0.2305 -0.1201
    1DIPC   GL230148   2.758  26.675   3.383  0.3977 -0.1460 -0.2075
    1DIPC   C1A30149   2.361  26.506   3.570  0.1447 -0.1058 -0.1114
    1DIPC   D2A30150   2.441  26.525   3.927  0.0878  0.1730  0.3554
    1DIPC   D3A30151   2.461  26.003   3.833 -0.0713 -0.0786  0.2951
    1DIPC   C4A30152   2.345  25.870   4.288 -0.3430  0.3127 -0.0090
    1DIPC   C1B30153   2.861  26.717   3.704  0.2523  0.0612  0.0828
    1DIPC   D2B30154   3.001  26.527   4.064  0.1477 -0.1043  0.2382
    1DIPC   D3B30155   3.244  26.264   3.822  0.0565  0.2213  0.0618
    1DIPC   C4B30156   3.454  25.986   4.126 -0.2162 -0.1279 -0.0926
    1DIPC   NC330157   6.206  21.668   1.420 -0.0959 -0.1999  0.1020
    1DIPC   PO430158   6.556  21.550   1.697 -0.0598 -0.1758  0.0639
    1DIPC   GL130159   6.455  21.535   2.129 -0.0354 -0.0758  0.0906
    1DIPC   GL230160   6.547  21.283   2.340 -0.4411 -0.0740  0.2976
    1DIPC   C1A30161   6.173  21.597   2.502 -0.0595  0.1571  0.3265
    1DIPC   D2A30162   5.781  21.637   2.773 -0.1497  0.0409  0.3422
    1DIPC   D3A30163   5.383  21.480   2.826  0.2312 -0.0214 -0.0541
    1DIPC   C4A30164   5.328  21.164   2.624 -0.1126 -0.2298  0.2369
    1DIPC   C1B30165   6.800  21.040   2.482 -0.1069 -0.1695 -0.2754
    1DIPC   D2B30166   6.987  20.826   2.844  0.1257  0.1549  0.0759
    1DIPC   D3B30167   7.021  20.447   2.972 -0.0823 -0.2292  0.0242
    1DIPC   C4B30168   7.199  20.312   3.365  0.0805  0.2501  0.0583
    1DIPC   NC330169   4.894   2.797   2.217 -0.0362  0.0433 -0.1265
    1DIPC   PO430170   4.978   2.823   2.756 -0.3243 -0.0485  0.0044
    1DIPC   GL130171   4.752   2.821   3.188  0.0295  0.1509  0.1017
    1DIPC   GL230172   4.721   3.099   3.455 -0.1506  0.0770  0.0620
    1DIPC   C1A30173   4.669   2.678   3.684 -0.2305  0.0795 -0.0249
    1DIPC   D2A30174   4.935   2.409   3.982 -0.0564  0.0199 -0.3866
    1DIPC   D3A30175   5.080   2.749   4.320  0.0517 -0.3768 -0.2522
    1DIPC   C4A30176   5.061   2.692   4.783  0.0482  0.0896 -0.1731
    1DIPC   C1B30177   4.850   3.066   3.950  0.6023  0.1026 -0.4213
    1DIPC   D2B30178   5.236   3.268   4.246 -0.2190  0.1282 -0.3647
    1DIPC   D3B30179   5.236   3.255   4.678 -0.3339 -0.3216  0.1762
    1DIPC   C4B30180   5.645   3.241   4.875  0.4358  0.0909 -0.2354
    1DIPC   NC330181   4.444  27.051   2.215 -0.2498 -0.1379 -0.3097
    1DIPC   PO430182   4.161  26.713   2.372  0.2012 -0.0457  0.2407
    1DIPC   GL130183   4.373  26.650   2.735 -0.1981  0.0110  0.3405
    1DIPC   GL230184   4.350  26.313   2.830 -0.1929  0.1088 -0.1442
    1DIPC   C1A30185   4.389  26.735   3.131  0.1141  0.2109  0.0990
    1DIPC   D2A30186   4.623  26.777   3.583  0.4049 -0.0533 -0.1377
    1DIPC   D3A30187   4.301  26.793   3.907 -0.0126  0.0989  0.0453
    1DIPC   C4A30188   3.905  26.460   3.865 -0.0265  0.1173 -0.1153
    1DIPC   C1B30189   4.618  26.317   3.290 -0.1353 -0.2735  0.1044
    1DIPC   D2B30190   4.615  26.310   3.731 -0.1480  0.2484 -0.0212
    1DIPC   D3B30191   4.661  26.501   4.152 -0.0940 -0.2842  0.3042
    1DIPC   C4B30192   4.979  26.533   4.515  0.2036 -0.3461  0.4707
    1DIPC   NC330193   3.259  24.409   1.178  0.0639 -0.0996 -0.2899
    1DIPC   PO430194   3.524  24.344   1.590 -0.1232 -0.1531 -0.0536
    1DIPC   GL130195   3.408  24.480   1.963  0.1699 -0.0361 -0.0863
    1DIPC   GL230196   3.512  24.193   2.274  0.2153  0.1584 -0.2126
    1DIPC   C1A30197   3.414  24.649   2.416  0.1975  0.0067  0.1734
    1DIPC   D2A30198   3.302  24.700   2.795  0.1604  0.1732 -0.1191
    1DIPC   D3A30199   3.665  24.501   2.925  0.2473  0.3373  0.2346
    1DIPC   C4A30200   3.823  24.358   3.323 -0.0031  0.1172  0.1146
    1DIPC   C1B30201   3.265  24.219   2.663 -0.0214 -0.3320 -0.1945
    1DIPC   D2B30202   2.901  24.374   2.843  0.0708  0.1317 -0.3133
    1DIPC   D3B30203   2.924  24.454   3.214 -0.0773  0.2235 -0.0360
    1DIPC   C4B30204   2.626  24.811   3.507  0.0557 -0.0162  0.1132
    1DIPC   NC330205   4.521  21.191   1.524  0.2123 -0.0593 -0.2284
    1DIPC   PO430206   4.975  21.291   1.484 -0.2013  0.3622  0.0714
    1DIPC   GL130207   4.882  21.402   1.872  0.1037 -0.0666  0.2172
    1DIPC   GL230208   5.072  21.376   2.128 -0.1612  0.1006  0.0038
    1DIPC   C1A30209   4.572  21.581   2.173  0.2250 -0.1480 -0.2731
    1DIPC   D2A30210   4.202  21.435   2.533  0.0499 -0.1165  0.3804
    1DIPC   D3A30211   4.204  21.471   2.979  0.1219  0.1623 -0.0583
    1DIPC   C4A30212   4.241  21.107   3.293  0.0113  0.2522 -0.1609
    1DIPC   C1B30213   4.821  21.336   2.527  0.2987  0.0867  0.2570
    1DIPC   D2B30214   4.601  21.124   2.925 -0.1711  0.0907 -0.0184
    1DIPC   D3B30215   4.673  21.515   3.155  0.4044 -0.1519 -0.0102
    1DIPC   C4B30216   5.081  21.434   3.502 -0.0134 -0.0164  0.2095
    1DIPC   NC330217   0.761   1.743   2.632  0.1675  0.0618 -0.1660
    1DIPC   PO430218   1.081   1.562   2.854 -0.1778  0.0253 -0.0264
    1DIPC   GL130219   0.971   1.520   3.304  0.0745 -0.3932  0.2208
    1DIPC   GL230220   0.920   1.265   3.518  0.2210  0.0716  0.0852
    1DIPC   C1A30221   1.143   1.723   3.530 -0.1905  0.2048 -0.0344
    1DIPC   D2A30222   1.179   2.140   3.717  0.2256  0.0263  0.0294
    1DIPC   D3A30223   1.658   2.022   3.740 -0.0582 -0.0100  0.1861
    1DIPC   C4A30224   1.919   2.331   3.784 -0.2072 -0.1412 -0.1857
    1DIPC   C1B30225   1.137   1.399   3.892  0.1391 -0.0685 -0.0833
    1DIPC   D2B30226   1.373   1.743   4.036 -0.0738 -0.0299 -0.0634
    1DIPC   D3B30227   1.355   2.155   4.180 -0.0507 -0.3858  0.1129
    1DIPC   C4B30228   1.755   2.375   4.275 -0.0900 -0.2228  0.1634
    1DIPC   NC330229   3.672  13.963   2.311 -0.1377  0.1139  0.0570
    1DIPC   PO430230   3.329  14.235   2.132  0.1464 -0.0667  0.1889
    1DIPC   GL130231   3.130  14.549   2.453 -0.1738 -0.0604  0.0259
    1DIPC   GL230232   2.911  14.431   2.432 -0.0392 -0.3590 -0.1222
    1DIPC   C1A30233   3.298  14.723   2.735  0.1674 -0.2329  0.0683
    1DIPC   D2A30234   3.451  14.865   3.058 -0.2184  0.0767  0.1227
    1DIPC   D3A30235   3.013  14.725   3.180  0.0040  0.2371 -0.1612
    1DIPC   C4A30236   2.802  14.937   3.351 -0.0790 -0.2159 -0.0891
    1DIPC   C1B30237   2.626  14.384   2.682  0.2246 -0.0874  0.1649
    1DIPC   D2B30238   2.538  14.295   2.979 -0.0791  0.0048 -0.2491
    1DIPC   D3B30239   2.435  13.856   3.051 -0.2441  0.2120 -0.1084
    1DIPC   C4B30240   2.395  13.899   3.415 -0.1948 -0.1360 -0.2692
    1DIPC   NC330241  26.573  16.245   1.928  0.3693 -0.1705 -0.1283
    1DIPC   PO430242  26.977  16.112   2.105 -0.2844 -0.1213 -0.2677
    1DIPC   GL130243  26.671  15.970   2.337 -0.4469  0.2127 -0.2075
    1DIPC   GL230244  26.859  15.734   2.541  0.0541  0.0101  0.2921
    1DIPC   C1A30245  26.440  16.158   2.625 -0.0157  0.1424 -0.0482
    1DIPC   D2A30246  26.013  16.149   2.644  0.2907  0.3043 -0.0022
    1DIPC   D3A30247  26.050  16.568   2.520  0.0245  0.1485  0.1671
    1DIPC   C4A30248  25.833  16.888   2.745  0.2261 -0.0155 -0.0818
    1DIPC   C1B30249  27.212  15.652   2.832  0.2757  0.2574  0.0297
    1DIPC   D2B30250  27.529  15.931   2.938  0.1883  0.2775 -0.0877
    1DIPC   D3B30251  27.794  15.838   2.629  0.3099  0.1760  0.0738
    1DIPC   C4B30252  28.248  15.667   2.738  0.1018 -0.2247 -0.2624
    1DIPC   NC330253  24.195  21.800   2.332  0.1173 -0.0373  0.0184
    1DIPC   PO430254  24.591  21.925   2.586 -0.2203 -0.0632  0.2864
    1DIPC   GL130255  24.743  21.678   2.913  0.1071 -0.1699 -0.2453
    1DIPC   GL230256  24.410  21.576   3.162  0.3796 -0.1126 -0.3798
    1DIPC   C1A30257  24.749  21.835   3.368 -0.1603 -0.1628  0.2277
    1DIPC   D2A30258  24.753  21.591   3.721  0.0855  0.3478  0.4487
    1DIPC   D3A30259  24.476  21.780   4.025  0.1882  0.0381  0.1208
    1DIPC   C4A30260  24.414  22.208   4.054 -0.0980 -0.1530 -0.1448
    1DIPC   C1B30261  24.185  21.524   3.489  0.1663 -0.0652 -0.1509
    1DIPC   D2B30262  23.915  21.830   3.850 -0.0020 -0.0034 -0.0247
    1DIPC   D3B30263  24.024  21.965   4.160 -0.1366 -0.4251  0.0024
    1DIPC   C4B30264  24.112  21.580   4.412 -0.0899  0.1662 -0.0777
    1DIPC   NC330265  27.100  21.046   1.968  0.1409 -0.2885  0.0274
    1DIPC   PO430266  27.294  21.062   2.369  0.0074 -0.1466  0.4053
    1DIPC   GL130267  27.083  20.855   2.805 -0.3627  0.1051  0.2524
    1DIPC   GL230268  26.884  20.582   2.741  0.0030  0.0382 -0.2449
    1DIPC   C1A30269  27.077  20.767   3.206 -0.0784 -0.0672 -0.2256
    1DIPC   D2A30270  26.904  20.562   3.552  0.1100  0.1910 -0.0405
    1DIPC   D3A30271  27.031  20.599   3.961  0.0808 -0.1988  0.0312
    1DIPC   C4A30272  27.119  20.419   4.293 -0.0104 -0.2809  0.2408
    1DIPC   C1B30273  26.766  20.389   3.143 -0.2027  0.1219 -0.1588
    1DIPC   D2B30274  26.852  19.951   3.334 -0.0848  0.0137 -0.0571
    1DIPC   D3B30275  26.983  19.640   3.035 -0.0012  0.0028  0.1857
    1DIPC   C4B30276  26.742  19.358   2.942 -0.0188 -0.0837 -0.0240
    1DIPC   NC330277  22.721   0.220   3.083 -0.3568  0.2833  0.4304
    1DIPC   PO430278  22.484  -0.116   3.078 -0.1458  0.0061 -0.2038
    1DIPC   GL130279  22.332   0.152   3.417 -0.0083  0.1889 -0.2732
    1DIPC   GL230280  22.035   0.001   3.444 -0.1032  0.1859  0.0239
    1DIPC   C1A30281  22.340   0.282   3.792 -0.2534  0.3738  0.0178
    1DIPC   D2A30282  22.329   0.395   4.248  0.2438  0.0884  0.4324
    1DIPC   D3A30283  21.930   0.213   4.302 -0.1572  0.3815 -0.0878
    1DIPC   C4A30284  21.755  -0.039   4.633  0.0175 -0.1460 -0.1650
    1DIPC   C1B30285  21.678  -0.106   3.624 -0.3568  0.0465 -0.3389
    1DIPC   D2B30286  21.295  -0.042   3.587 -0.3107  0.0548  0.0791
    1DIPC   D3B30287  21.267   0.086   3.907 -0.1440  0.0273 -0.1735
    1DIPC   C4B30288  21.557  -0.022   4.106 -0.1521 -0.1619 -0.0213
    1DIPC   NC330289  23.525  13.415   2.314 -0.3552  0.1192 -0.1209
    1DIPC   PO430290  23.419  13.786   2.305  0.2809 -0.2210 -0.0114
    1DIPC   GL130291  23.711  14.036   2.604  0.1170 -0.0515  0.0616
    1DIPC   GL230292  23.879  14.393   2.495 -0.2127  0.1704 -0.1466
    1DIPC   C1A30293  23.769  14.076   3.080  0.1502  0.1823  0.0465
    1DIPC   D2A30294  24.006  14.232   3.427 -0.3556  0.2286 -0.3830
    1DIPC   D3A30295  24.325  14.507   3.596  0.0340  0.0045 -0.1532
    1DIPC   C4A30296  24.510  14.642   3.153 -0.2306 -0.0025 -0.0825
    1DIPC   C1B30297  23.991  14.702   2.709  0.1716 -0.0663 -0.0591
    1DIPC   D2B30298  24.007  14.805   3.110  0.0999 -0.2010 -0.0083
    1DIPC   D3B30299  24.076  15.016   3.511  0.0357  0.0359  0.0369
    1DIPC   C4B30300  23.721  15.173   3.765  0.1086 -0.1124  0.0806
    1DIPC   NC330301   8.142  29.765   3.148  0.0305  0.0715 -0.0636
    1DIPC   PO430302   8.385  29.423   3.237  0.0930  0.1164  0.2546
    1DIPC   GL130303   8.427  29.620   3.678 -0.0627  0.0634 -0.0450
    1DIPC   GL230304   8.177  29.891   3.708  0.1536  0.0003  0.0080
    1DIPC   C1A30305   8.473  29.744   4.045 -0.2103 -0.2334 -0.1605
    1DIPC   D2A30306   8.415  29.928   4.341 -0.3935  0.0913 -0.2719
    1DIPC   D3A30307   8.681  29.998   4.669  0.0199 -0.2003 -0.0612
    1DIPC   C4A30308   8.773  29.627   4.752  0.0345 -0.2796  0.1508
    1DIPC   C1B30309   8.055  30.199   4.026 -0.0048  0.1558 -0.0711
    1DIPC   D2B30310   8.216  30.389   4.272 -0.3116 -0.1219 -0.1561
    1DIPC   D3B30311   8.195  30.255   4.685 -0.0361 -0.0854 -0.0480
    1DIPC   C4B30312   8.284  29.766   4.838  0.1069  0.1050 -0.2529
    1DIPC   NC330313  19.030  24.088   2.903 -0.0068  0.1935 -0.1476
    1DIPC   PO430314  19.322  24.383   2.974  0.3938 -0.0487 -0.0804
    1DIPC   GL130315  19.262  24.252   3.351 -0.2271  0.0173 -0.5694
    1DIPC   GL230316  19.339  24.550   3.531 -0.1016  0.1705 -0.1924
    1DIPC   C1A30317  19.376  23.895   3.509 -0.0496 -0.0612 -0.0632
    1DIPC   D2A30318  19.136  23.623   3.783 -0.0320  0.0978 -0.0492
    1DIPC   D3A30319  18.999  23.645   4.252 -0.0203  0.1236  0.1693
    1DIPC   C4A30320  19.242  23.862   4.577  0.0652 -0.0491 -0.1085
    1DIPC   C1B30321  19.474  24.784   3.830 -0.0624 -0.1208  0.3729
    1DIPC   D2B30322  19.289  24.876   4.234 -0.0519 -0.0843  0.1617
    1DIPC   D3B30323  19.348  24.783   4.685 -0.2727  0.0010  0.0984
    1DIPC   C4B30324  19.765  24.689   4.929 -0.1587 -0.0454 -0.0031
    1DIPC   NC330325  20.449   2.834   3.220 -0.0923  0.2673  0.0727
    1DIPC   PO430326  20.689   3.122   3.070  0.1307  0.2472  0.0778
    1DIPC   GL130327  20.697   3.298   3.481  0.3949  0.2005 -0.3496
    1DIPC   GL230328  20.911   3.497   3.608  0.3145 -0.3599  0.2165
    1DIPC   C1A30329  20.418   3.231   3.842  0.0066  0.0040 -0.3354
    1DIPC   D2A30330  20.409   3.025   4.283 -0.0399 -0.0787  0.1248
    1DIPC   D3A30331  19.998   2.826   4.361 -0.2758 -0.1269  0.0078
    1DIPC   C4A30332  19.873   2.773   4.800 -0.0279  0.3355  0.2076
    1DIPC   C1B30333  20.740   3.509   4.070  0.0577 -0.2162 -0.0614
    1DIPC   D2B30334  20.613   3.473   4.482 -0.0604 -0.2061 -0.1597
    1DIPC   D3B30335  20.859   3.102   4.530  0.0484 -0.2862  0.0737
    1DIPC   C4B30336  21.219   3.209   4.824 -0.1716  0.0030  0.2732
    1DIPC   NC330337   6.728  21.903   2.013  0.0297  0.1047  0.3876
    1DIPC   PO430338   6.314  22.046   1.864  0.0783 -0.0299 -0.0978
    1DIPC   GL130339   6.242  22.172   2.304 -0.1823  0.0904  0.1091
    1DIPC   GL230340   5.936  21.982   2.339 -0.2945  0.0043 -0.0594
    1DIPC   C1A30341   6.371  22.064   2.790  0.1775 -0.0542 -0.0378
    1DIPC   D2A30342   6.178  21.898   3.077  0.2232 -0.1964 -0.2107
    1DIPC   D3A30343   6.288  21.815   3.473  0.1795 -0.1716  0.2213
    1DIPC   C4A30344   6.743  22.012   3.586  0.3024 -0.1069  0.1258
    1DIPC   C1B30345   5.880  22.144   2.725 -0.1978 -0.0535  0.0837
    1DIPC   D2B30346   6.018  22.376   3.142  0.0120 -0.2025  0.0110
    1DIPC   D3B30347   5.784  22.212   3.377 -0.2107 -0.0494  0.1266
    1DIPC   C4B30348   5.513  22.376   3.671  0.1291  0.0352 -0.2630
    1DIPC   NC330349  14.590   6.114   3.512  0.0465 -0.0764 -0.2257
    1DIPC   PO430350  14.187   6.307   3.715 -0.1574 -0.2008  0.0042
    1DIPC   GL130351  14.541   6.335   4.067  0.0573  0.0863 -0.1657
    1DIPC   GL230352  14.843   6.385   3.888  0.0790 -0.0027 -0.1918
    1DIPC   C1A30353  14.558   6.412   4.427  0.2954 -0.0082  0.1296
    1DIPC   D2A30354  14.406   6.637   4.892 -0.0828 -0.1781  0.2014
    1DIPC   D3A30355  14.875   6.543   5.037  0.0325  0.2033  0.0202
    1DIPC   C4A30356  15.041   6.622   5.435 -0.2438 -0.1264 -0.4617
    1DIPC   C1B30357  15.037   6.638   4.235  0.2470  0.0750  0.1442
    1DIPC   D2B30358  15.055   6.676   4.543  0.0543  0.2337 -0.1213
    1DIPC   D3B30359  15.216   6.758   4.770  0.4044  0.4244 -0.1833
    1DIPC   C4B30360  15.019   7.004   5.043 -0.0032 -0.0256 -0.1401
    1DIPC   NC330361  19.667   4.963   3.072 -0.3708  0.3075  0.1642
    1DIPC   PO430362  19.588   5.098   3.427  0.1166 -0.1652  0.3073
    1DIPC   GL130363  19.927   4.999   3.780 -0.0490 -0.1399 -0.1601
    1DIPC   GL230364  19.875   4.844   3.967  0.2574  0.0940  0.0702
    1DIPC   C1A30365  20.383   4.960   3.888 -0.0598  0.0820  0.0712
    1DIPC   D2A30366  20.613   5.115   4.188  0.1833  0.3624 -0.0276
    1DIPC   D3A30367  20.921   4.856   4.357  0.1073 -0.1590  0.2549
    1DIPC   C4A30368  20.924   4.870   4.692 -0.3590  0.0481 -0.0647
    1DIPC   C1B30369  20.108   4.957   4.369 -0.1890  0.0281  0.1233
    1DIPC   D2B30370  20.332   4.859   4.760 -0.2626 -0.3262 -0.1318
    1DIPC   D3B30371  20.141   4.854   5.078  0.3019 -0.0229  0.3982
    1DIPC   C4B30372  20.047   4.453   5.351 -0.2016  0.0559 -0.0497
    1DIPC   NC330373  17.696  25.548   2.887  0.3824  0.1280 -0.3328
    1DIPC   PO430374  18.170  25.594   2.973 -0.1959  0.0456 -0.0320
    1DIPC   GL130375  18.206  25.755   3.473 -0.0274  0.1669  0.0798
    1DIPC   GL230376  18.398  25.970   3.559  0.1673 -0.0584 -0.2456
    1DIPC   C1A30377  17.981  25.579   3.819 -0.0112 -0.0070 -0.1299
    1DIPC   D2A30378  17.556  25.716   4.017  0.0116 -0.0195  0.1482
    1DIPC   D3A30379  17.460  26.044   3.691 -0.1875  0.0270  0.4512
    1DIPC   C4A30380  17.136  26.262   3.825 -0.0504 -0.1755 -0.0983
    1DIPC   C1B30381  18.494  25.634   3.888 -0.0023 -0.1039  0.0853
    1DIPC   D2B30382  18.361  25.270   4.086 -0.0112 -0.0944  0.0590
    1DIPC   D3B30383  18.502  25.294   4.554  0.1170  0.2060 -0.0962
    1DIPC   C4B30384  18.331  25.689   4.811 -0.0103 -0.0090 -0.2991
    1DIPC   NC330385  18.468   2.028   3.441 -0.0384  0.0286 -0.0813
    1DIPC   PO430386  18.133   2.037   3.741 -0.0038 -0.0529 -0.0996
    1DIPC   GL130387  18.427   1.924   4.069  0.2250  0.0884  0.1464
    1DIPC   GL230388  18.357   1.630   4.232 -0.1918  0.2998 -0.0623
    1DIPC   C1A30389  18.512   2.068   4.499  0.1547 -0.1319 -0.0187
    1DIPC   D2A30390  18.626   1.893   4.848 -0.2601 -0.3852  0.0261
    1DIPC   D3A30391  18.451   2.182   5.016 -0.0611 -0.2378 -0.0283
    1DIPC   C4A30392  18.041   2.330   5.115  0.0899 -0.2574 -0.0047
    1DIPC   C1B30393  18.728   1.605   4.347 -0.0970  0.0234 -0.2005
    1DIPC   D2B30394  18.903   1.426   4.589  0.3541  0.1865 -0.0947
    1DIPC   D3B30395  19.401   1.479   4.637  0.0850  0.2713 -0.1573
    1DIPC   C4B30396  19.616   1.092   4.800 -0.0735  0.2695  0.2142
    1DIPC   NC330397  19.428  28.601   3.004  0.0752 -0.0293 -0.1624
    1DIPC   PO430398  19.592  28.161   3.072  0.0687  0.0289  0.1047
    1DIPC   GL130399  19.643  28.004   3.444  0.0638 -0.1507 -0.1309
    1DIPC   GL230400  19.307  27.832   3.631 -0.0716 -0.1268 -0.1005
    1DIPC   C1A30401  19.794  27.711   3.742 -0.1117 -0.0512 -0.0234
    1DIPC   D2A30402  20.028  27.960   4.068  0.1002 -0.2341  0.2686
    1DIPC   D3A30403  19.739  28.186   3.916  0.2464 -0.0141 -0.1261
    1DIPC   C4A30404  19.937  28.505   3.636 -0.0472  0.1192 -0.0914
    1DIPC   C1B30405  19.070  27.831   3.910  0.1052  0.2066 -0.1118
    1DIPC   D2B30406  19.164  28.010   4.329 -0.0686  0.2555  0.3266
    1DIPC   D3B30407  19.601  27.685   4.199 -0.1441 -0.1555  0.0681
    1DIPC   C4B30408  19.930  27.733   4.453 -0.0611  0.0684  0.1104
    1DIPC   NC330409  10.016  23.153   1.726 -0.1177 -0.0317 -0.0523
    1DIPC   PO430410   9.872  23.316   2.084 -0.1992 -0.1835 -0.0077
    1DIPC   GL130411   9.907  23.239   2.498 -0.1149  0.0423 -0.2470
    1DIPC   GL230412   9.673  23.240   2.626 -0.1078  0.0140  0.0752
    1DIPC   C1A30413  10.146  23.325   2.977 -0.2218 -0.1597 -0.2368
    1DIPC   D2A30414  10.224  23.406   3.408  0.1004 -0.0079  0.1209
    1DIPC   D3A30415  10.603  23.177   3.627  0.1049  0.2986  0.2192
    1DIPC   C4A30416  10.802  23.427   3.985 -0.2363 -0.1803  0.1784
    1DIPC   C1B30417   9.682  23.112   2.982  0.1786  0.0400  0.1421
    1DIPC   D2B30418   9.867  23.026   3.430  0.0787  0.4628  0.2797
    1DIPC   D3B30419   9.863  22.592   3.455 -0.1527 -0.1223 -0.3679
    1DIPC   C4B30420  10.046  22.367   3.845 -0.2105 -0.1197  0.2122
    1DIPC   NC330421   0.756  12.065   2.159  0.2783  0.3631  0.0485
    1DIPC   PO430422   1.026  12.433   2.332 -0.1472 -0.0111 -0.0840
    1DIPC   GL130423   1.142  12.365   2.748  0.0782 -0.0954  0.1806
    1DIPC   GL230424   1.275  12.683   2.735  0.0545  0.1731  0.1208
    1DIPC   C1A30425   0.906  12.321   3.148 -0.0356  0.0144 -0.1759
    1DIPC   D2A30426   0.674  12.062   3.354  0.2072  0.3538  0.1873
    1DIPC   D3A30427   0.445  11.814   3.562 -0.2573 -0.1704 -0.0613
    1DIPC   C4A30428   0.011  11.774   3.592  0.0372 -0.4718  0.3876
    1DIPC   C1B30429   1.689  12.829   2.920  0.2045  0.0617  0.1210
    1DIPC   D2B30430   2.119  12.941   2.880  0.4287  0.0249 -0.1978
    1DIPC   D3B30431   2.081  12.819   3.276  0.0160 -0.2317  0.2653
    1DIPC   C4B30432   1.867  12.611   3.608 -0.2366  0.2078  0.1600
    1DIPC   NC330433  25.580   2.571   2.860  0.0639 -0.0348  0.0392
    1DIPC   PO430434  25.280   2.858   2.708  0.1042  0.0429 -0.1475
    1DIPC   GL130435  25.281   3.007   3.169  0.0617  0.3718  0.2192
    1DIPC   GL230436  25.325   2.681   3.294 -0.2421  0.0812 -0.1363
    1DIPC   C1A30437  25.042   3.090   3.507 -0.0039  0.0909 -0.1265
    1DIPC   D2A30438  24.896   2.795   3.811  0.1173 -0.3874 -0.1160
    1DIPC   D3A30439  24.549   2.509   3.842 -0.1621 -0.1442 -0.0844
    1DIPC   C4A30440  24.370   2.154   3.566  0.0512 -0.2299  0.2504
    1DIPC   C1B30441  25.368   2.701   3.797 -0.3753  0.4219  0.2822
    1DIPC   D2B30442  25.544   2.528   4.106 -0.2466 -0.1312  0.0017
    1DIPC   D3B30443  25.584   3.009   4.163  0.2032 -0.2380 -0.1850
    1DIPC   C4B30444  25.914   3.238   4.258  0.2707 -0.2811  0.1428
    1DIPC   NC330445   3.879  14.994   1.969  0.2208  0.0825 -0.1383
    1DIPC   PO430446   4.190  14.704   2.239  0.1330 -0.3464 -0.0606
    1DIPC   GL130447   4.365  14.728   2.748  0.3115 -0.0942  0.0285
    1DIPC   GL230448   4.580  14.538   2.873 -0.1905  0.0513  0.1537
    1DIPC   C1A30449   4.392  14.944   3.131 -0.1450  0.0017  0.0076
    1DIPC   D2A30450   4.193  14.993   3.472  0.1796  0.2115 -0.1030
    1DIPC   D3A30451   4.251  15.366   3.318 -0.2331 -0.2819 -0.1286
    1DIPC   C4A30452   3.958  15.725   3.359  0.1909  0.0238 -0.1505
    1DIPC   C1B30453   4.516  14.388   3.222 -0.4072  0.0437  0.0280
    1DIPC   D2B30454   4.242  14.485   3.555 -0.0661  0.1183 -0.2185
    1DIPC   D3B30455   4.217  14.815   3.949 -0.1511  0.0003 -0.1702
    1DIPC   C4B30456   3.809  14.974   3.971  0.0417 -0.0858 -0.1997
    1DIPC   NC330457   9.744  20.778   1.997 -0.2575 -0.2517  0.0681
    1DIPC   PO430458  10.258  20.834   2.062 -0.2273  0.2613  0.1946
    1DIPC   GL130459  10.269  20.914   2.511  0.0779  0.1979  0.2166
    1DIPC   GL230460  10.506  20.826   2.655 -0.0384 -0.2667 -0.0032
    1DIPC   C1A30461  10.172  21.239   2.832  0.1686  0.3554 -0.0048
    1DIPC   D2A30462   9.782  21.190   3.112 -0.2037  0.1598  0.5502
    1DIPC   D3A30463   9.271  21.026   3.213  0.0718  0.1620  0.3385
    1DIPC   C4A30464   9.109  21.075   3.602  0.0164  0.0041 -0.1948
    1DIPC   C1B30465  10.274  20.866   3.171  0.0537  0.1807 -0.0332
    1DIPC   D2B30466  10.327  21.016   3.610 -0.1274  0.0234 -0.3909
    1DIPC   D3B30467  10.228  21.404   3.415  0.3597 -0.2714 -0.1384
    1DIPC   C4B30468  10.195  21.679   3.091  0.0261 -0.0237  0.0405
    1DIPC   NC330469  24.643   6.256   3.078 -0.1983  0.3004 -0.2159
    1DIPC   PO430470  24.693   5.752   3.269  0.0397  0.0714  0.3663
    1DIPC   GL130471  24.407   6.060   3.575  0.1410  0.0192 -0.1430
    1DIPC   GL230472  24.451   6.086   3.846 -0.0865  0.0421  0.0420
    1DIPC   C1A30473  24.438   6.528   3.722  0.0904  0.1094  0.0114
    1DIPC   D2A30474  24.401   6.637   4.246 -0.0812 -0.1566  0.0749
    1DIPC   D3A30475  24.714   6.575   4.604 -0.2742 -0.4717  0.0233
    1DIPC   C4A30476  24.816   6.253   4.917 -0.0113 -0.1313  0.0901
    1DIPC   C1B30477  24.776   6.286   4.104  0.0587 -0.0844  0.0669
    1DIPC   D2B30478  25.012   6.203   4.453  0.1549 -0.0296 -0.2016
    1DIPC   D3B30479  24.873   5.817   4.503 -0.0551  0.1315  0.0410
    1DIPC   C4B30480  24.590   5.720   4.165  0.2497 -0.2827  0.1049
    1DIPC   NC330481  21.037   7.885   2.825  0.1109  0.0807  0.0722
    1DIPC   PO430482  20.984   7.683   3.253 -0.1224 -0.0076 -0.1245
    1DIPC   GL130483  21.168   7.795   3.586  0.2802  0.0603 -0.0629
    1DIPC   GL230484  21.537   7.715   3.794  0.2508  0.0170  0.2973
    1DIPC   C1A30485  21.124   7.904   4.097 -0.1095 -0.3689 -0.0254
    1DIPC   D2A30486  21.051   8.136   4.500 -0.3171 -0.1705 -0.2293
    1DIPC   D3A30487  21.482   8.106   4.780  0.0398 -0.0041 -0.0728
    1DIPC   C4A30488  21.775   7.793   4.913  0.2822 -0.3044 -0.0929
    1DIPC   C1B30489  21.562   7.631   4.256  0.0347  0.2197  0.2511
    1DIPC   D2B30490  21.858   7.453   4.597  0.0094  0.1015  0.0099
    1DIPC   D3B30491  22.129   7.575   4.253 -0.1707 -0.1545  0.1462
    1DIPC   C4B30492  22.068   7.426   3.899  0.0177  0.1325  0.0485
    1DIPC   NC330493  23.277  11.773   2.457  0.0052  0.1934  0.0704
    1DIPC   PO430494  23.678  11.722   2.739  0.5242  0.2437  0.0259
    1DIPC   GL130495  23.479  11.915   3.061  0.1045 -0.1701  0.0400
    1DIPC   GL230496  23.825  12.056   3.202  0.2160  0.0997 -0.1667
    1DIPC   C1A30497  23.592  11.864   3.602  0.1770  0.1644  0.2665
    1DIPC   D2A30498  23.939  11.672   3.824  0.2368  0.1471  0.1339
    1DIPC   D3A30499  24.266  11.460   3.605  0.1601 -0.2285  0.1422
    1DIPC   C4A30500  24.152  10.977   3.705  0.0978 -0.1472 -0.1290
    1DIPC   C1B30501  24.053  12.183   3.665  0.0040  0.2923  0.0445
    1DIPC   D2B30502  24.137  12.052   4.068  0.0858 -0.1246  0.1062
    1DIPC   D3B30503  24.367  11.594   4.079  0.1601 -0.1719 -0.2395
    1DIPC   C4B30504  24.072  11.281   4.084 -0.1904 -0.0113  0.0135
    1DIPC   NC330505  24.521  26.567   2.990  0.0620 -0.0509 -0.1469
    1DIPC   PO430506  24.469  26.180   2.829 -0.1701 -0.1248 -0.0988
    1DIPC   GL130507  24.453  26.087   3.354 -0.0575  0.0951 -0.1891
    1DIPC   GL230508  24.694  26.069   3.464 -0.2121  0.1657 -0.1374
    1DIPC   C1A30509  24.140  26.324   3.712  0.0790  0.1811 -0.1155
    1DIPC   D2A30510  23.832  26.599   3.793 -0.2026  0.0858  0.0712
    1DIPC   D3A30511  23.710  26.536   4.278 -0.0709 -0.0207  0.1858
    1DIPC   C4A30512  24.027  26.462   4.613 -0.1802  0.4104  0.0106
    1DIPC   C1B30513  24.823  26.021   3.843 -0.1107 -0.2136  0.0456
    1DIPC   D2B30514  24.938  26.016   4.178 -0.1252 -0.0964  0.0169
    1DIPC   D3B30515  25.396  25.862   3.814 -0.2335  0.2341 -0.1856
    1DIPC   C4B30516  25.846  25.636   3.896  0.0228 -0.0394 -0.0362
    1DIPC   NC330517   6.002  29.608   3.273  0.2100 -0.0074  0.0781
    1DIPC   PO430518   6.270  29.410   3.639 -0.1071  0.1612  0.3280
    1DIPC   GL130519   6.253  29.226   4.009 -0.0733 -0.0342  0.0459
    1DIPC   GL230520   5.985  29.499   4.197 -0.1857 -0.0150  0.2176
    1DIPC   C1A30521   6.284  29.065   4.333  0.2680 -0.2265 -0.0785
    1DIPC   D2A30522   6.313  28.892   4.738 -0.1277 -0.0535  0.0039
    1DIPC   D3A30523   6.293  28.591   4.903  0.2347 -0.1252  0.1606
    1DIPC   C4A30524   6.636  28.298   5.030 -0.0920  0.1085 -0.0513
    1DIPC   C1B30525   5.865  29.376   4.669  0.0932  0.2080  0.0607
    1DIPC   D2B30526   5.632  29.219   4.873  0.0578  0.0123 -0.2482
    1DIPC   D3B30527   5.198  29.110   4.640 -0.0687 -0.0656  0.3858
    1DIPC   C4B30528   5.301  28.761   4.480  0.1755  0.0385  0.1575
    1DIPC   NC330529  14.906  26.677   2.922 -0.0330  0.1486  0.0220
    1DIPC   PO430530  15.009  27.070   2.975 -0.1116  0.1680  0.2770
    1DIPC   GL130531  15.004  26.923   3.355 -0.0304  0.1679 -0.0787
    1DIPC   GL230532  14.850  26.737   3.623  0.1299 -0.0102 -0.2989
    1DIPC   C1A30533  15.353  26.840   3.644 -0.0262  0.2391  0.1146
    1DIPC   D2A30534  15.607  27.120   3.817 -0.0105  0.2612  0.1186
    1DIPC   D3A30535  15.896  26.960   4.079 -0.2946  0.0818  0.0931
    1DIPC   C4A30536  15.905  26.995   4.472  0.0096 -0.0067  0.2767
    1DIPC   C1B30537  14.916  26.572   3.934 -0.2384 -0.1366  0.1883
    1DIPC   D2B30538  15.334  26.625   4.152 -0.1541  0.3520  0.1768
    1DIPC   D3B30539  15.089  26.598   4.511 -0.0680  0.0918  0.0010
    1DIPC   C4B30540  15.235  26.303   4.844  0.2303  0.2880  0.0113
    1DIPC   NC330541  13.834  29.708   3.707 -0.0745  0.3548  0.2264
    1DIPC   PO430542  14.097  30.040   3.822  0.0590 -0.0505 -0.5127
    1DIPC   GL130543  14.029  30.119   4.245  0.1746 -0.0302  0.0325
    1DIPC   GL230544  14.162  30.439   4.379  0.0931 -0.5128  0.1103
    1DIPC   C1A30545  14.006  30.007   4.728 -0.0194 -0.1351  0.4233
    1DIPC   D2A30546  13.954  30.193   5.142  0.2006 -0.0829 -0.0976
    1DIPC   D3A30547  14.192  29.881   5.419 -0.2012 -0.0180 -0.1741
    1DIPC   C4A30548  14.006  29.515   5.625  0.1720 -0.0120  0.2717
    1DIPC   C1B30549  13.864  30.496   4.632 -0.0474 -0.0532 -0.0360
    1DIPC   D2B30550  13.626  30.571   5.042 -0.1235 -0.2436  0.1410
    1DIPC   D3B30551  13.549  30.988   5.042  0.1849 -0.0529  0.0437
    1DIPC   C4B30552  13.294  31.117   4.810  0.0706 -0.1638 -0.2099
    1DIPC   NC330553  25.458  12.736   2.345  0.2498 -0.1538 -0.2702
    1DIPC   PO430554  25.793  12.851   2.169 -0.0637  0.1112  0.0832
    1DIPC   GL130555  25.783  12.989   2.724 -0.2212  0.1661  0.0604
    1DIPC   GL230556  25.574  12.791   2.855  0.2296 -0.0184  0.1321
    1DIPC   C1A30557  25.741  13.103   3.186  0.0420 -0.0709 -0.1706
    1DIPC   D2A30558  25.618  13.370   3.485  0.0385  0.2703 -0.0118
    1DIPC   D3A30559  25.809  13.777   3.584  0.1329 -0.2753  0.1045
    1DIPC   C4A30560  25.737  14.144   3.920  0.4407 -0.1124 -0.3486
    1DIPC   C1B30561  25.762  12.586   3.204 -0.4046 -0.0308  0.2583
    1DIPC   D2B30562  26.016  12.757   3.520 -0.1226 -0.1335  0.3090
    1DIPC   D3B30563  26.418  12.780   3.461  0.1079  0.0963  0.1271
    1DIPC   C4B30564  26.714  12.589   3.312  0.1140  0.4639  0.0027
    1DIPC   NC330565   5.953  19.326   1.927 -0.2710 -0.0993  0.1553
    1DIPC   PO430566   5.517  19.170   1.876  0.1574  0.3651  0.1784
    1DIPC   GL130567   5.087  19.010   1.954  0.0499  0.1075 -0.0695
    1DIPC   GL230568   5.030  18.690   1.858  0.0610  0.1708 -0.2186
    1DIPC   C1A30569   5.020  18.909   2.470 -0.0518 -0.0021 -0.2071
    1DIPC   D2A30570   4.774  18.591   2.653  0.0650 -0.3409  0.2020
    1DIPC   D3A30571   4.911  18.545   3.085 -0.0219 -0.0563  0.1031
    1DIPC   C4A30572   4.684  18.341   3.455 -0.3719 -0.0301 -0.1350
    1DIPC   C1B30573   5.306  18.578   2.194 -0.1916 -0.0214 -0.0528
    1DIPC   D2B30574   5.478  18.506   2.564 -0.2104  0.0186 -0.0725
    1DIPC   D3B30575   5.117  18.185   2.564  0.0964  0.0913 -0.0575
    1DIPC   C4B30576   4.706  18.118   2.698  0.1189 -0.1104  0.2180
    1DIPC   NC330577  17.421   9.009   2.386 -0.0313 -0.1315 -0.0991
    1DIPC   PO430578  17.779   8.887   2.539  0.3616 -0.0611  0.0417
    1DIPC   GL130579  17.761   9.113   2.944  0.0480 -0.3139  0.0970
    1DIPC   GL230580  17.971   9.320   2.997 -0.0005 -0.0207  0.0504
    1DIPC   C1A30581  17.705   9.345   3.500  0.0238  0.1532 -0.2701
    1DIPC   D2A30582  17.689   9.635   3.827 -0.0453  0.0509  0.1237
    1DIPC   D3A30583  17.402   9.777   4.115 -0.0596 -0.3036  0.2238
    1DIPC   C4A30584  17.277  10.112   4.362  0.0187 -0.0199  0.0266
    1DIPC   C1B30585  18.426   9.276   2.996 -0.1470 -0.0443  0.2550
    1DIPC   D2B30586  18.642   9.629   3.162  0.0644  0.3072  0.0185
    1DIPC   D3B30587  19.047   9.747   3.107 -0.1543  0.1566  0.1827
    1DIPC   C4B30588  19.234   9.842   3.470 -0.0693  0.2033 -0.0042
    1DIPC   NC330589  24.571  27.590   3.373  0.0654 -0.2195  0.3893
    1DIPC   PO430590  24.077  27.604   3.272  0.0932  0.0902 -0.0789
    1DIPC   GL130591  24.188  27.562   3.748 -0.1117  0.2012  0.1311
    1DIPC   GL230592  24.425  27.759   3.826  0.1117  0.0196  0.0840
    1DIPC   C1A30593  24.284  27.351   4.115  0.3571  0.0855 -0.1620
    1DIPC   D2A30594  24.647  27.254   4.417  0.0474  0.0572 -0.2346
    1DIPC   D3A30595  24.509  26.831   4.541 -0.2702 -0.2165 -0.2259
    1DIPC   C4A30596  24.431  26.886   4.946  0.0057 -0.1499 -0.3004
    1DIPC   C1B30597  24.447  27.832   4.292  0.1253 -0.2642 -0.0286
    1DIPC   D2B30598  24.379  27.596   4.644  0.2922 -0.4222 -0.0399
    1DIPC   D3B30599  24.015  27.575   4.569 -0.0890 -0.1639 -0.2956
    1DIPC   C4B30600  23.892  27.696   4.067 -0.2259  0.2473 -0.1788
    1DIPC   NC330601  23.554  14.892   1.768 -0.0306  0.1925 -0.0775
    1DIPC   PO430602  23.888  14.585   2.050  0.1327 -0.1052  0.0668
    1DIPC   GL130603  23.637  14.834   2.396 -0.0536 -0.0876  0.0149
    1DIPC   GL230604  23.275  14.927   2.383  0.2288 -0.2057 -0.0547
    1DIPC   C1A30605  23.542  14.918   2.901  0.0107  0.3774  0.1434
    1DIPC   D2A30606  23.598  15.077   3.264 -0.1274  0.0150 -0.3108
    1DIPC   D3A30607  23.154  15.182   3.401 -0.6017 -0.0953  0.0336
    1DIPC   C4A30608  22.884  15.401   3.323  0.1597  0.2199  0.0326
    1DIPC   C1B30609  22.883  14.663   2.447 -0.0171 -0.0076 -0.0212
    1DIPC   D2B30610  22.443  14.647   2.303 -0.1849 -0.2047  0.1147
    1DIPC   D3B30611  22.282  14.267   2.505  0.0016  0.3351  0.0187
    1DIPC   C4B30612  22.004  14.383   2.854 -0.2136 -0.3231 -0.0712
    1DIPC   NC330613   6.119  22.748   1.485  0.0026  0.0142 -0.1980
    1DIPC   PO430614   6.072  22.530   1.848 -0.0690 -0.2467 -0.1808
    1DIPC   GL130615   5.875  22.441   2.217 -0.0530 -0.1551  0.1028
    1DIPC   GL230616   5.613  22.404   2.415  0.2297 -0.2305 -0.0369
    1DIPC   C1A30617   6.097  22.560   2.584  0.0956  0.0373  0.0823
    1DIPC   D2A30618   6.371  22.908   2.672  0.1343 -0.0831  0.1383
    1DIPC   D3A30619   6.349  22.850   3.120  0.0117  0.0580  0.0270
    1DIPC   C4A30620   6.601  22.746   3.463  0.1503 -0.2497  0.3941
    1DIPC   C1B30621   5.565  22.517   2.881  0.1821 -0.0584  0.4131
    1DIPC   D2B30622   5.496  22.720   3.215  0.1088  0.0762  0.4389
    1DIPC   D3B30623   5.369  23.004   3.584  0.1656  0.0180  0.3137
    1DIPC   C4B30624   5.227  23.442   3.486 -0.0934 -0.0720  0.2440
    1DIPC   NC330625  23.582   0.066   2.817  0.1442 -0.1460  0.0532
    1DIPC   PO430626  23.726   0.458   2.935  0.0179  0.0904  0.1243
    1DIPC   GL130627  23.815   0.407   3.331 -0.3295 -0.1768 -0.0439
    1DIPC   GL230628  23.589   0.263   3.564 -0.3351  0.1947 -0.0741
    1DIPC   C1A30629  24.149   0.219   3.690  0.1007 -0.1936 -0.0186
    1DIPC   D2A30630  24.558   0.123   3.732 -0.2087  0.1081  0.0565
    1DIPC   D3A30631  24.561   0.291   4.096  0.2369 -0.1966  0.0080
    1DIPC   C4A30632  24.463   0.058   4.485  0.0276 -0.0327  0.0309
    1DIPC   C1B30633  23.705   0.177   3.937  0.1485  0.3285 -0.0300
    1DIPC   D2B30634  23.868   0.392   4.293  0.1480 -0.5389  0.2065
    1DIPC   D3B30635  23.611   0.545   4.505  0.2319  0.0656 -0.3122
    1DIPC   C4B30636  23.431   0.237   4.772 -0.0441 -0.1045  0.3915
    1DIPC   NC330637   7.019  28.548   2.709  0.3281  0.1561  0.0184
    1DIPC   PO430638   7.159  28.760   3.080  0.0296  0.2387  0.0024
    1DIPC   GL130639   7.276  28.663   3.582 -0.1530 -0.5960  0.1091
    1DIPC   GL230640   7.145  28.943   3.772  0.0810  0.0989  0.2417
    1DIPC   C1A30641   7.391  28.601   3.978  0.1725 -0.1073  0.1195
    1DIPC   D2A30642   7.679  28.640   4.240 -0.0090  0.1009  0.3332
    1DIPC   D3A30643   7.453  29.133   4.226 -0.1476  0.2676 -0.0019
    1DIPC   C4A30644   7.345  29.341   3.953  0.0874 -0.0999  0.1852
    1DIPC   C1B30645   7.699  29.011   3.840 -0.0218  0.2411  0.2106
    1DIPC   D2B30646   7.943  29.150   4.209  0.3006  0.1461 -0.0453
    1DIPC   D3B30647   7.804  29.258   4.592 -0.2206  0.0470 -0.0223
    1DIPC   C4B30648   7.925  29.456   4.923  0.0207 -0.1011 -0.1378
    1DIPC   NC330649   6.005  19.828   2.310 -0.0097  0.0039  0.0100
    1DIPC   PO430650   5.662  19.630   2.146  0.2343  0.0473 -0.0112
    1DIPC   GL130651   5.549  19.481   2.467 -0.1848 -0.2186  0.2673
    1DIPC   GL230652   5.614  19.759   2.749  0.0003 -0.2869  0.0316
    1DIPC   C1A30653   5.133  19.445   2.735 -0.1419  0.1372  0.1716
    1DIPC   D2A30654   4.743  19.156   2.858 -0.0593  0.3340 -0.1015
    1DIPC   D3A30655   4.699  19.298   3.292 -0.0165 -0.0467  0.0444
    1DIPC   C4A30656   4.227  19.259   3.379 -0.0965 -0.1664 -0.1530
    1DIPC   C1B30657   5.639  19.488   3.090  0.1043 -0.1872  0.0512
    1DIPC   D2B30658   5.589  19.076   3.157  0.4072  0.2639  0.1825
    1DIPC   D3B30659   5.847  18.994   3.497  0.0716  0.3816  0.0118
    1DIPC   C4B30660   6.242  18.807   3.691  0.0452 -0.0521  0.1050
    1DIPC   NC330661  28.555  19.145   1.638 -0.0988 -0.0960 -0.1667
    1DIPC   PO430662  28.887  19.272   2.026  0.2026 -0.0365  0.0905
    1DIPC   GL130663  28.829  19.202   2.435  0.1095  0.4672  0.3394
    1DIPC   GL230664  29.050  18.986   2.556 -0.2184  0.0790 -0.0132
    1DIPC   C1A30665  28.799  19.485   2.829  0.1323  0.1602  0.0628
    1DIPC   D2A30666  28.988  19.735   3.176 -0.5871  0.1782  0.3527
    1DIPC   D3A30667  28.860  19.512   3.550  0.1957 -0.0869  0.4727
    1DIPC   C4A30668  29.228  19.264   3.778 -0.1317  0.0373  0.1103
    1DIPC   C1B30669  29.124  18.542   2.638 -0.0526  0.0690  0.0005
    1DIPC   D2B30670  29.431  18.427   2.866  0.1915  0.3004 -0.1642
    1DIPC   D3B30671  29.300  18.099   3.161 -0.1404  0.1870 -0.2790
    1DIPC   C4B30672  29.023  18.167   3.494 -0.2367 -0.1820  0.1833
    1DIPC   NC330673  10.935  29.906   3.023  0.0033 -0.1379 -0.3327
    1DIPC   PO430674  11.003  30.069   3.455 -0.0419  0.2381  0.3073
    1DIPC   GL130675  11.047  30.158   3.886 -0.0408 -0.4263 -0.0732
    1DIPC   GL230676  10.802  30.292   4.020  0.0820 -0.1597 -0.0749
    1DIPC   C1A30677  11.312  29.931   4.209 -0.1795  0.1785  0.1594
    1DIPC   D2A30678  11.497  29.598   4.493 -0.1273  0.2009  0.0470
    1DIPC   D3A30679  11.668  29.880   4.780  0.0523  0.0622  0.3138
    1DIPC   C4A30680  11.972  29.718   5.054  0.1299 -0.1773 -0.3875
    1DIPC   C1B30681  10.449  30.287   4.276 -0.2336  0.1232 -0.1975
    1DIPC   D2B30682  10.116  30.099   4.458 -0.2442  0.1713 -0.1436
    1DIPC   D3B30683  10.367  30.203   4.806 -0.0692 -0.2053  0.0216
    1DIPC   C4B30684  10.632  29.803   4.826 -0.3539 -0.0004 -0.2622
    1DIPC   NC330685   5.304  14.935   2.391  0.0050  0.2304  0.2311
    1DIPC   PO430686   5.070  14.560   2.548 -0.2083 -0.0441  0.0137
    1DIPC   GL130687   5.113  14.577   2.902  0.4143 -0.3707  0.0607
    1DIPC   GL230688   5.401  14.856   2.869 -0.0388 -0.0073 -0.1651
    1DIPC   C1A30689   4.979  14.653   3.309 -0.0839  0.1221 -0.2690
    1DIPC   D2A30690   4.725  14.637   3.686  0.0734  0.0588  0.0656
    1DIPC   D3A30691   4.741  14.950   4.014  0.0799  0.2541 -0.0536
    1DIPC   C4A30692   4.941  15.033   4.413  0.0471 -0.1763 -0.1073
    1DIPC   C1B30693   5.240  15.267   3.003 -0.1039 -0.2672  0.0043
    1DIPC   D2B30694   5.318  15.545   3.341  0.1536  0.1142 -0.1757
    1DIPC   D3B30695   4.986  15.522   3.644 -0.1620  0.2281  0.2242
    1DIPC   C4B30696   5.257  15.360   4.043  0.1146  0.1831  0.1423
    1DIPC   NC330697   4.172  12.164   2.751 -0.1772 -0.0829 -0.2541
    1DIPC   PO430698   3.869  11.845   2.733 -0.2637  0.1648 -0.1702
    1DIPC   GL130699   3.500  11.832   3.047 -0.1010  0.0257 -0.1143
    1DIPC   GL230700   3.133  11.737   3.080  0.0302 -0.2874  0.4322
    1DIPC   C1A30701   3.407  11.924   3.424  0.1517 -0.1752  0.0928
    1DIPC   D2A30702   3.027  11.831   3.804 -0.1692 -0.0813  0.0971
    1DIPC   D3A30703   3.145  12.217   3.998 -0.2461 -0.1223 -0.3035
    1DIPC   C4A30704   2.899  12.632   4.158  0.2991 -0.0839  0.1593
    1DIPC   C1B30705   2.809  11.927   3.361 -0.1107  0.0242 -0.0585
    1DIPC   D2B30706   2.754  12.306   3.642 -0.0273  0.1900  0.2267
    1DIPC   D3B30707   3.230  12.390   3.551 -0.2833  0.3154 -0.2890
    1DIPC   C4B30708   3.618  12.318   3.791 -0.0408  0.2193 -0.1656
    1DIPC   NC330709   6.294   9.654   2.955  0.1558 -0.3527  0.1463
    1DIPC   PO430710   5.901   9.835   3.248  0.0870 -0.2355  0.0345
    1DIPC   GL130711   5.742  10.001   3.571  0.2063  0.0996 -0.3651
    1DIPC   GL230712   5.973   9.860   3.834  0.0383 -0.1914  0.0236
    1DIPC   C1A30713   5.525   9.967   4.038  0.1295 -0.2655  0.1126
    1DIPC   D2A30714   5.460  10.064   4.512  0.2151 -0.0768 -0.2434
    1DIPC   D3A30715   5.598  10.493   4.479 -0.0712 -0.1856  0.0455
    1DIPC   C4A30716   5.422  10.873   4.266 -0.2573  0.1188 -0.0889
    1DIPC   C1B30717   6.211   9.834   4.098  0.2277 -0.2407  0.1702
    1DIPC   D2B30718   6.240   9.706   4.436  0.0197 -0.2241  0.1226
    1DIPC   D3B30719   6.058  10.043   4.737  0.1511 -0.4508 -0.0599
    1DIPC   C4B30720   6.082  10.400   4.765 -0.0134 -0.0722  0.0125
    1DIPC   NC330721  25.272  18.235   1.798 -0.1547  0.0260 -0.0244
    1DIPC   PO430722  24.861  17.920   2.011 -0.0762  0.3749 -0.1617
    1DIPC   GL130723  25.161  17.899   2.309  0.1203  0.1620 -0.0791
    1DIPC   GL230724  25.026  18.217   2.435 -0.4087  0.0248  0.3941
    1DIPC   C1A30725  25.389  17.874   2.762 -0.4418  0.3054 -0.1123
    1DIPC   D2A30726  25.464  17.940   3.216  0.0815 -0.1552  0.1098
    1DIPC   D3A30727  25.097  18.228   3.245  0.0532 -0.1363 -0.0124
    1DIPC   C4A30728  24.881  18.054   3.625  0.0182 -0.1186  0.1448
    1DIPC   C1B30729  25.325  18.353   2.827 -0.0979 -0.1158  0.0118
    1DIPC   D2B30730  25.604  18.547   3.090  0.2127  0.2320 -0.0693
    1DIPC   D3B30731  25.532  18.496   3.540  0.0573 -0.1176 -0.0379
    1DIPC   C4B30732  25.341  18.180   3.747 -0.1346 -0.0345 -0.0614
    1DIPC   NC330733   3.338  17.808   1.197 -0.0619 -0.1436 -0.1025
    1DIPC   PO430734   3.102  17.761   1.564 -0.2693 -0.4363 -0.1593
    1DIPC   GL130735   3.127  17.683   2.068  0.1689 -0.1171 -0.3205
    1DIPC   GL230736   3.049  17.512   2.202 -0.1781  0.0369 -0.2967
    1DIPC   C1A30737   3.472  17.689   2.403  0.1478 -0.1604  0.0691
    1DIPC   D2A30738   3.382  17.742   2.908 -0.1445 -0.0965  0.0084
    1DIPC   D3A30739   3.638  17.574   3.202  0.0338 -0.1330 -0.1353
    1DIPC   C4A30740   3.985  17.818   3.484 -0.0288  0.1475 -0.1235
    1DIPC   C1B30741   3.175  17.332   2.608  0.2203  0.1395  0.1713
    1DIPC   D2B30742   3.199  17.257   3.093  0.0534  0.1029  0.0989
    1DIPC   D3B30743   3.201  17.579   3.346  0.3120 -0.0013 -0.2855
    1DIPC   C4B30744   3.066  17.428   3.693 -0.2223 -0.0284  0.1801
    1DIPC   NC330745  25.194  11.769   1.995  0.2573  0.0724 -0.2308
    1DIPC   PO430746  25.007  11.566   2.409  0.1009 -0.0890 -0.3174
    1DIPC   GL130747  25.348  11.520   2.591 -0.4149  0.0564 -0.3610
    1DIPC   GL230748  25.611  11.667   2.277  0.3504  0.1303  0.2221
    1DIPC   C1A30749  25.476  11.662   2.952 -0.3467 -0.3643  0.0597
    1DIPC   D2A30750  25.244  11.503   3.316  0.0339  0.0408 -0.2064
    1DIPC   D3A30751  25.488  11.153   3.560 -0.0436  0.1014 -0.0815
    1DIPC   C4A30752  25.865  11.285   3.701  0.0769 -0.3610  0.1634
    1DIPC   C1B30753  25.781  11.882   2.601  0.2053  0.0827  0.0066
    1DIPC   D2B30754  25.676  12.096   2.976  0.1070 -0.2276 -0.0372
    1DIPC   D3B30755  25.847  11.807   3.303 -0.2567 -0.0484 -0.2302
    1DIPC   C4B30756  25.565  11.734   3.662 -0.0159  0.1151 -0.0431
    1DIPC   NC330757  21.408   8.466   3.001  0.1192  0.0767  0.3017
    1DIPC   PO430758  21.194   8.166   3.259  0.1383  0.2088  0.4347
    1DIPC   GL130759  21.565   8.198   3.522  0.0277  0.1351 -0.0247
    1DIPC   GL230760  21.866   8.364   3.482 -0.2066  0.1268 -0.1097
    1DIPC   C1A30761  21.587   8.177   3.938 -0.1442  0.1215  0.1152
    1DIPC   D2A30762  21.464   8.313   4.273 -0.2110 -0.2443  0.1803
    1DIPC   D3A30763  21.542   8.647   4.579 -0.0625 -0.1604  0.0002
    1DIPC   C4A30764  21.575   9.107   4.637  0.3240  0.2296 -0.0362
    1DIPC   C1B30765  21.560   8.630   3.760  0.1862 -0.0789  0.4298
    1DIPC   D2B30766  21.653   8.784   4.062  0.0917  0.2054 -0.0974
    1DIPC   D3B30767  21.982   8.539   4.335 -0.0608  0.1816  0.1490
    1DIPC   C4B30768  21.913   8.232   4.570 -0.0232 -0.2017 -0.0116
    1DIPC   NC330769  13.659   4.732   3.455  0.0500  0.0696 -0.0406
    1DIPC   PO430770  13.281   4.697   3.741  0.3536 -0.1065 -0.1211
    1DIPC   GL130771  13.114   4.525   4.113 -0.1002  0.0485 -0.2677
    1DIPC   GL230772  12.927   4.228   4.175 -0.1777  0.0539 -0.2155
    1DIPC   C1A30773  13.159   4.556   4.638 -0.0553 -0.2204  0.2137
    1DIPC   D2A30774  13.197   4.205   4.900  0.1302 -0.1494  0.3260
    1DIPC   D3A30775  13.101   4.201   5.309  0.0163  0.2309 -0.0349
    1DIPC   C4A30776  13.455   4.144   5.589  0.0316 -0.1969  0.3539
    1DIPC   C1B30777  12.694   4.442   4.489 -0.1769  0.0479  0.1931
    1DIPC   D2B30778  12.760   4.467   4.860  0.3160  0.1730 -0.2405
    1DIPC   D3B30779  12.636   4.524   5.272  0.1162  0.3111 -0.0824
    1DIPC   C4B30780  12.572   4.159   5.594  0.2013 -0.3189 -0.0781
    1DIPC   NC330781   8.206  12.380   2.876  0.1635  0.2507  0.1127
    1DIPC   PO430782   8.440  12.278   3.233 -0.0135  0.1699  0.1125
    1DIPC   GL130783   8.530  12.484   3.448  0.1321 -0.1527  0.0104
    1DIPC   GL230784   8.418  12.819   3.492 -0.2771  0.3915  0.0182
    1DIPC   C1A30785   8.631  12.443   3.906 -0.5726 -0.2262 -0.1090
    1DIPC   D2A30786   8.883  12.161   4.271  0.1267  0.0067  0.0913
    1DIPC   D3A30787   9.167  12.228   3.840 -0.3096 -0.0474  0.1467
    1DIPC   C4A30788   9.242  12.676   3.663 -0.1943  0.2208  0.3647
    1DIPC   C1B30789   8.244  12.750   3.885 -0.0042 -0.0516 -0.0528
    1DIPC   D2B30790   8.238  12.603   4.331  0.0684  0.0425  0.0933
    1DIPC   D3B30791   7.915  12.357   4.568  0.3199 -0.3355 -0.1336
    1DIPC   C4B30792   8.001  12.071   4.858  0.0166 -0.1345  0.3477
    1DIPC   NC330793  23.601  26.617   2.743 -0.0331  0.0094  0.0264
    1DIPC   PO430794  23.704  26.825   3.214 -0.1931 -0.0411 -0.4085
    1DIPC   GL130795  23.522  26.979   3.585  0.1091  0.0446  0.2240
    1DIPC   GL230796  23.248  26.775   3.603 -0.2263 -0.0824 -0.0535
    1DIPC   C1A30797  23.384  26.922   4.067 -0.4348  0.2607 -0.0762
    1DIPC   D2A30798  23.219  26.596   4.384 -0.1818 -0.2647  0.0715
    1DIPC   D3A30799  23.552  26.623   4.739  0.0694  0.1328 -0.0351
    1DIPC   C4A30800  23.794  26.212   4.926  0.1944 -0.1647 -0.3576
    1DIPC   C1B30801  23.128  26.477   3.883  0.1911  0.5809 -0.0996
    1DIPC   D2B30802  23.183  26.101   4.136 -0.2637  0.2893 -0.0839
    1DIPC   D3B30803  23.456  26.121   4.536  0.1370  0.2185  0.0645
    1DIPC   C4B30804  23.319  26.101   5.059 -0.1780  0.2229  0.3750
    1DIPC   NC330805   5.648   7.585   3.526 -0.0436 -0.1751 -0.0881
    1DIPC   PO430806   5.771   7.944   3.694  0.2317 -0.1850  0.1462
    1DIPC   GL130807   5.565   7.836   4.086 -0.1673  0.0754  0.1989
    1DIPC   GL230808   5.789   7.648   4.209  0.1673  0.2624  0.2709
    1DIPC   C1A30809   5.567   7.938   4.528 -0.1225 -0.3310  0.2549
    1DIPC   D2A30810   5.574   8.152   4.929 -0.0780 -0.0217  0.2535
    1DIPC   D3A30811   5.198   8.005   5.006 -0.1104 -0.1133  0.1182
    1DIPC   C4A30812   4.709   7.744   4.889 -0.0019  0.3563 -0.0308
    1DIPC   C1B30813   6.065   7.815   4.468  0.2382  0.1764 -0.0135
    1DIPC   D2B30814   5.899   7.739   4.961 -0.2111 -0.0872  0.4754
    1DIPC   D3B30815   6.029   7.988   5.318  0.2478 -0.2770 -0.0761
    1DIPC   C4B30816   5.924   8.441   5.319 -0.0286 -0.4596  0.1013
    1DIPC   NC330817   1.578   2.714   2.995  0.0859 -0.1278 -0.3975
    1DIPC   PO430818   1.627   2.273   3.205 -0.1042  0.1119  0.3975
    1DIPC   GL130819   1.481   2.504   3.525 -0.0857  0.1342 -0.0048
    1DIPC   GL230820   1.518   2.594   3.834  0.3536 -0.3884 -0.0778
    1DIPC   C1A30821   1.664   2.960   3.564 -0.1091  0.2817 -0.2422
    1DIPC   D2A30822   1.757   3.418   3.611  0.0840 -0.2672  0.2710
    1DIPC   D3A30823   1.488   3.306   3.880 -0.1831  0.1253 -0.0445
    1DIPC   C4A30824   1.491   3.575   4.188  0.0144  0.0807  0.0017
    1DIPC   C1B30825   1.380   2.904   4.146  0.1304  0.2074 -0.0272
    1DIPC   D2B30826   1.390   3.059   4.576 -0.1190 -0.2450  0.0880
    1DIPC   D3B30827   1.703   2.752   4.623 -0.1532  0.0798  0.0984
    1DIPC   C4B30828   1.776   2.280   4.765  0.1655 -0.0844  0.2766
    1DIPC   NC330829   6.485   6.517   3.226  0.0445  0.1282  0.1284
    1DIPC   PO430830   6.262   6.188   3.100 -0.1746  0.3564  0.0448
    1DIPC   GL130831   6.330   6.155   3.586  0.2447  0.0252 -0.2989
    1DIPC   GL230832   6.256   6.366   3.830  0.0192 -0.3002  0.0347
    1DIPC   C1A30833   6.275   5.825   3.887  0.1125  0.1632 -0.0809
    1DIPC   D2A30834   6.106   5.502   4.134  0.2168 -0.0040  0.1787
    1DIPC   D3A30835   6.038   5.388   3.735 -0.1540 -0.0815  0.1994
    1DIPC   C4A30836   6.238   5.028   3.515 -0.1324  0.1796  0.2068
    1DIPC   C1B30837   5.981   6.233   4.172 -0.3179  0.2006  0.4200
    1DIPC   D2B30838   5.801   6.261   4.564  0.3180 -0.0357 -0.1887
    1DIPC   D3B30839   5.380   6.268   4.242  0.1263  0.0608  0.1147
    1DIPC   C4B30840   5.171   6.553   4.015  0.0508  0.0041 -0.2802
    1DIPC   NC330841  23.062  22.866   2.497  0.0824 -0.2820 -0.2340
    1DIPC   PO430842  23.084  23.113   2.871 -0.0477 -0.1235  0.4125
    1DIPC   GL130843  23.350  23.033   3.220  0.3534 -0.1083 -0.0836
    1DIPC   GL230844  23.551  23.310   3.478 -0.0208  0.0949  0.0198
    1DIPC   C1A30845  23.463  22.801   3.605  0.0488 -0.1968  0.1418
    1DIPC   D2A30846  23.611  22.559   3.933  0.1404 -0.0629  0.2640
    1DIPC   D3A30847  23.211  22.759   4.065 -0.0512  0.2750 -0.1272
    1DIPC   C4A30848  23.124  23.127   4.169  0.3230 -0.1665  0.0447
    1DIPC   C1B30849  23.522  23.425   3.882 -0.3034 -0.0384 -0.0088
    1DIPC   D2B30850  23.368  23.552   4.193  0.0331 -0.3490  0.0784
    1DIPC   D3B30851  23.634  23.837   4.408  0.1569  0.0576  0.0004
    1DIPC   C4B30852  23.609  23.835   4.821  0.2661  0.1967  0.0201
    1DIPC   NC330853  27.304   1.579   2.638 -0.2594 -0.1809  0.1077
    1DIPC   PO430854  27.550   2.034   2.744  0.2536 -0.1135  0.2077
    1DIPC   GL130855  27.343   1.897   3.055 -0.1399 -0.0382 -0.2743
    1DIPC   GL230856  27.375   2.087   3.314  0.1992 -0.2484 -0.2100
    1DIPC   C1A30857  27.108   1.666   3.386 -0.0402  0.0978 -0.1292
    1DIPC   D2A30858  27.242   1.459   3.728  0.2118 -0.2937  0.0386
    1DIPC   D3A30859  27.656   1.302   3.708 -0.1222  0.0016 -0.0932
    1DIPC   C4A30860  27.768   0.990   3.979  0.2959 -0.1861  0.1208
    1DIPC   C1B30861  27.603   1.776   3.546  0.1656  0.1152 -0.1701
    1DIPC   D2B30862  27.787   1.741   3.953  0.2981 -0.2324 -0.0896
    1DIPC   D3B30863  27.646   2.164   4.209 -0.0995 -0.3454  0.0111
    1DIPC   C4B30864  27.803   2.501   4.519  0.3439 -0.0009 -0.1768
    1DIPC   NC330865  15.084   4.292   3.703 -0.0140 -0.0946 -0.2393
    1DIPC   PO430866  15.104   4.809   3.723 -0.0208  0.1173 -0.1191
    1DIPC   GL130867  15.209   4.759   4.106  0.0178 -0.0602  0.1200
    1DIPC   GL230868  15.360   4.400   4.210 -0.0733 -0.2049 -0.1009
    1DIPC   C1A30869  14.793   4.913   4.328  0.0503  0.3898 -0.3377
    1DIPC   D2A30870  14.325   4.786   4.414 -0.1130  0.0792  0.1338
    1DIPC   D3A30871  13.959   4.631   4.709  0.0451 -0.1521 -0.0070
    1DIPC   C4A30872  13.876   4.297   4.708  0.2936  0.0495  0.1432
    1DIPC   C1B30873  15.619   4.181   4.468 -0.0956 -0.1556 -0.2774
    1DIPC   D2B30874  15.725   4.314   4.895 -0.0130  0.0497  0.2886
    1DIPC   D3B30875  15.712   3.880   5.012 -0.0076 -0.1450  0.3118
    1DIPC   C4B30876  15.993   3.790   5.340 -0.0588 -0.3779 -0.0644
    1DIPC   NC330877   7.891   9.133   3.629  0.0512 -0.1608  0.0323
    1DIPC   PO430878   8.180   9.474   3.767 -0.0916  0.0226  0.2284
    1DIPC   GL130879   8.179   9.309   4.090  0.1879  0.4220  0.0696
    1DIPC   GL230880   7.948   9.041   4.131 -0.1078 -0.3208  0.0211
    1DIPC   C1A30881   8.202   9.227   4.510  0.0384  0.2948 -0.0227
    1DIPC   D2A30882   8.080   8.995   4.842  0.0748 -0.0800 -0.2959
    1DIPC   D3A30883   8.091   9.314   5.169 -0.1787 -0.0694  0.1388
    1DIPC   C4A30884   8.570   9.334   5.435  0.0861 -0.1204 -0.0975
    1DIPC   C1B30885   8.083   8.748   4.429  0.1308  0.0826 -0.1022
    1DIPC   D2B30886   7.935   8.370   4.584 -0.3197 -0.2480 -0.0276
    1DIPC   D3B30887   8.194   8.466   4.973  0.1503 -0.0939  0.0691
    1DIPC   C4B30888   8.677   8.481   4.933 -0.1503 -0.1856  0.1770
    1DIPC   NC330889   8.543  25.854   2.607 -0.0286 -0.2070 -0.1164
    1DIPC   PO430890   8.147  25.689   2.620  0.1141  0.1040 -0.2235
    1DIPC   GL130891   7.915  25.741   2.963  0.1202 -0.1443 -0.0010
    1DIPC   GL230892   8.130  25.793   3.192 -0.4197 -0.2798 -0.3025
    1DIPC   C1A30893   7.630  25.908   3.360 -0.0140  0.1568 -0.1009
    1DIPC   D2A30894   7.606  26.151   3.798 -0.3656  0.0955  0.2905
    1DIPC   D3A30895   7.728  25.801   4.130 -0.4144 -0.0977 -0.0771
    1DIPC   C4A30896   7.501  25.450   4.236 -0.0301 -0.1817 -0.0122
    1DIPC   C1B30897   8.021  25.665   3.491  0.0085 -0.2190  0.0313
    1DIPC   D2B30898   8.045  25.896   3.802 -0.4445  0.1836  0.2633
    1DIPC   D3B30899   8.448  26.069   4.050 -0.0206 -0.1767 -0.3187
    1DIPC   C4B30900   8.825  26.039   3.827 -0.0494  0.0470  0.0021
    1DIPC   NC330901  24.573  29.869   3.445  0.1783 -0.0918 -0.0436
    1DIPC   PO430902  24.603  29.400   3.263 -0.0373 -0.0535 -0.1058
    1DIPC   GL130903  24.734  29.500   3.746 -0.0299 -0.0995  0.0852
    1DIPC   GL230904  24.484  29.641   3.939  0.2261 -0.0241 -0.2798
    1DIPC   C1A30905  24.965  29.565   4.089  0.0946  0.1193 -0.0169
    1DIPC   D2A30906  25.224  29.684   4.288 -0.0084  0.1908  0.3779
    1DIPC   D3A30907  25.736  29.783   4.393 -0.3441 -0.3760 -0.1079
    1DIPC   C4A30908  26.037  29.648   4.549 -0.2498  0.0712 -0.2409
    1DIPC   C1B30909  24.679  29.928   4.186 -0.1146  0.1131 -0.1142
    1DIPC   D2B30910  24.977  30.089   4.428 -0.1500 -0.2944  0.1618
    1DIPC   D3B30911  25.023  30.331   4.023  0.2025 -0.3669 -0.0846
    1DIPC   C4B30912  25.156  30.601   3.848 -0.0867 -0.2673 -0.1079
    1DIPC   NC330913  12.627  28.042   3.124  0.1459  0.1359 -0.3343
    1DIPC   PO430914  13.076  28.040   3.429  0.2029 -0.1323  0.1141
    1DIPC   GL130915  13.070  28.069   3.867  0.2446  0.2474  0.3411
    1DIPC   GL230916  13.314  27.732   3.862 -0.2199  0.1701 -0.0100
    1DIPC   C1A30917  12.769  28.121   4.331 -0.2779  0.0084  0.0566
    1DIPC   D2A30918  12.976  28.244   4.661  0.0888 -0.0391  0.2133
    1DIPC   D3A30919  12.568  28.100   4.806 -0.0447 -0.0159  0.1935
    1DIPC   C4A30920  12.264  28.442   4.982  0.0325  0.0001 -0.1979
    1DIPC   C1B30921  13.019  27.674   4.216  0.1662 -0.1197  0.1327
    1DIPC   D2B30922  12.914  27.609   4.709 -0.4275  0.4034  0.1793
    1DIPC   D3B30923  12.556  27.616   4.910 -0.1210  0.2087 -0.1046
    1DIPC   C4B30924  12.200  27.825   4.738  0.2721 -0.2190 -0.1854
    1DIPC   NC330925   7.223  29.244   2.955  0.0954  0.1017 -0.1112
    1DIPC   PO430926   7.103  29.534   3.225 -0.5403 -0.0929  0.2369
    1DIPC   GL130927   6.812  29.552   3.604 -0.2514  0.0439  0.0828
    1DIPC   GL230928   6.667  29.173   3.715 -0.0331 -0.3482 -0.1908
    1DIPC   C1A30929   6.993  29.660   4.060  0.1562  0.0052  0.0960
    1DIPC   D2A30930   7.073  29.386   4.407  0.0049  0.0607  0.0348
    1DIPC   D3A30931   7.308  29.307   4.813  0.0026  0.0085  0.4982
    1DIPC   C4A30932   7.473  29.550   5.097  0.1487  0.5723 -0.1252
    1DIPC   C1B30933   6.845  29.148   4.067  0.2467 -0.0627 -0.0250
    1DIPC   D2B30934   6.718  29.111   4.541 -0.0706 -0.1436  0.3176
    1DIPC   D3B30935   6.768  28.656   4.707 -0.2024 -0.0152  0.0140
    1DIPC   C4B30936   7.035  28.738   5.057 -0.1666 -0.2747  0.2525
    1DIPC   NC330937   2.135  27.929   2.994  0.1443 -0.0592  0.1169
    1DIPC   PO430938   2.119  27.488   3.272  0.2028 -0.0795 -0.0210
    1DIPC   GL130939   1.953  27.032   3.290 -0.0196  0.2019  0.4379
    1DIPC   GL230940   2.103  26.958   3.541 -0.0421 -0.2684 -0.0474
    1DIPC   C1A30941   1.976  26.516   3.256 -0.2339  0.1704  0.0545
    1DIPC   D2A30942   1.591  26.248   3.471  0.0736  0.0154  0.1932
    1DIPC   D3A30943   2.001  26.149   3.666  0.3357 -0.0274 -0.1317
    1DIPC   C4A30944   2.127  25.650   3.833  0.1944 -0.1903  0.1553
    1DIPC   C1B30945   1.938  26.626   3.850  0.0003 -0.0915 -0.2134
    1DIPC   D2B30946   1.883  26.321   4.216 -0.1500 -0.1314  0.0134
    1DIPC   D3B30947   1.417  26.264   4.157  0.0972 -0.0179  0.0249
    1DIPC   C4B30948   1.146  25.780   4.192 -0.1002 -0.0563  0.1252
    1DIPC   NC330949  28.778   3.017   2.378  0.2747  0.3186  0.0850
    1DIPC   PO430950  28.973   3.080   2.658  0.0456 -0.2377  0.0511
    1DIPC   GL130951  28.730   2.985   3.122 -0.0103 -0.0998  0.1659
    1DIPC   GL230952  28.974   3.094   3.377 -0.5654  0.1150  0.0074
    1DIPC   C1A30953  28.506   3.005   3.535 -0.0526  0.0963  0.1365
    1DIPC   D2A30954  28.288   3.001   3.906 -0.0826  0.3375 -0.0126
    1DIPC   D3A30955  28.545   2.703   4.086 -0.0563 -0.1811  0.1952
    1DIPC   C4A30956  28.919   2.529   4.043 -0.0300 -0.4393 -0.2845
    1DIPC   C1B30957  28.949   3.078   3.750  0.0056  0.2269  0.0340
    1DIPC   D2B30958  28.869   3.146   4.150  0.1258  0.0030  0.1376
    1DIPC   D3B30959  28.852   2.854   4.453 -0.0578 -0.0314 -0.0069
    1DIPC   C4B30960  29.048   2.855   4.856 -0.0799 -0.1480 -0.0859
    1DIPC   NC330961  29.984  13.329   1.855  0.2907 -0.0292  0.2193
    1DIPC   PO430962  30.281  12.976   2.103 -0.2447 -0.0122  0.1293
    1DIPC   GL130963  30.065  13.169   2.442 -0.0351  0.0137  0.2640
    1DIPC   GL230964  30.247  13.400   2.654  0.3598 -0.0299  0.2186
    1DIPC   C1A30965  29.734  13.112   2.678 -0.0722 -0.1066 -0.2585
    1DIPC   D2A30966  29.540  12.861   2.955 -0.1487  0.1375  0.3258
    1DIPC   D3A30967  29.683  13.002   3.308  0.2559  0.1477  0.1647
    1DIPC   C4A30968  29.867  13.449   3.344  0.2507 -0.0655  0.5444
    1DIPC   C1B30969  29.911  13.575   2.846 -0.0148  0.4766  0.0832
    1DIPC   D2B30970  29.576  13.823   3.056 -0.1959 -0.1316 -0.1943
    1DIPC   D3B30971  29.027  13.655   3.252 -0.1909  0.2567  0.1784
    1DIPC   C4B30972  29.076  13.331   3.559  0.0479  0.1033 -0.1048
    1DIPC   NC330973  11.124  21.743   2.510  0.2316 -0.1027 -0.1908
    1DIPC   PO430974  11.441  21.504   2.529 -0.1431 -0.2565 -0.0022
    1DIPC   GL130975  11.566  21.607   2.876 -0.0607 -0.1089 -0.2208
    1DIPC   GL230976  11.263  21.921   2.929 -0.1738 -0.0237  0.3421
    1DIPC   C1A30977  11.550  21.652   3.311 -0.1020  0.1750 -0.0107
    1DIPC   D2A30978  11.352  21.666   3.713  0.1204 -0.4154  0.0208
    1DIPC   D3A30979  11.569  22.016   3.975  0.1850  0.2422  0.1138
    1DIPC   C4A30980  11.926  21.885   4.175 -0.0760  0.1709  0.3089
    1DIPC   C1B30981  11.028  22.069   3.133 -0.1195  0.1261  0.1594
    1DIPC   D2B30982  11.085  22.038   3.522  0.2460  0.2043  0.1408
    1DIPC   D3B30983  11.460  22.096   3.485 -0.2093  0.0186  0.1013
    1DIPC   C4B30984  11.736  22.491   3.393  0.0663 -0.0582 -0.3181
    1DIPC   NC330985  22.068  16.162   2.073  0.0105  0.1095  0.1897
    1DIPC   PO430986  22.398  16.294   1.850  0.3221 -0.2849  0.1119
    1DIPC   GL130987  22.618  16.572   2.006  0.0248 -0.1836  0.1277
    1DIPC   GL230988  22.438  16.556   2.313  0.0998  0.0495  0.1007
    1DIPC   C1A30989  23.024  16.567   2.239  0.0454 -0.0434  0.2295
    1DIPC   D2A30990  23.429  16.385   2.127 -0.1530 -0.3301  0.2791
    1DIPC   D3A30991  23.783  16.240   2.427 -0.2176  0.0414 -0.0736
    1DIPC   C4A30992  23.573  16.083   2.868  0.5273 -0.0646  0.2225
    1DIPC   C1B30993  22.775  16.369   2.660  0.2980 -0.1071  0.0635
    1DIPC   D2B30994  22.796  15.925   2.939  0.1382 -0.0620  0.5820
    1DIPC   D3B30995  22.570  15.743   3.137  0.0724  0.1184 -0.1968
    1DIPC   C4B30996  22.288  15.933   3.360  0.2815 -0.0086 -0.2096
    1DIPC   NC330997  14.199   8.431   2.947 -0.3066 -0.5213  0.1679
    1DIPC   PO430998  14.469   8.423   3.284  0.2265 -0.1856  0.0372
    1DIPC   GL130999  14.657   8.682   3.483 -0.1697  0.3854  0.0205
    1DIPC   GL231000  14.699   8.940   3.391 -0.1344  0.0242 -0.0123
    1DIPC   C1A31001  14.727   8.829   4.029 -0.1122  0.0734 -0.0834
    1DIPC   D2A31002  14.727   8.494   4.248  0.0510  0.1328 -0.3190
    1DIPC   D3A31003  15.041   8.604   4.383  0.0697 -0.0774  0.2681
    1DIPC   C4A31004  14.907   8.960   4.597 -0.3396 -0.0385  0.0648
    1DIPC   C1B31005  14.987   9.128   3.740  0.2593 -0.0863 -0.0944
    1DIPC   D2B31006  15.176   9.006   4.167 -0.1362  0.0690  0.0448
    1DIPC   D3B31007  15.033   9.394   4.343 -0.1351  0.4806 -0.3764
    1DIPC   C4B31008  15.313   9.383   4.685 -0.2436 -0.1425  0.2208
    1CHOL   ROH31009  17.312  18.781   6.179 -0.1980 -0.0285  0.0068
    1CHOL    R131010  17.146  18.755   5.951 -0.0892 -0.0217 -0.0730
    1CHOL    R231011  17.183  18.906   5.722  0.0092 -0.0039 -0.0416
    1CHOL    R331012  17.190  18.662   5.602  0.0782  0.0070 -0.0615
    1CHOL    R431013  17.173  18.853   5.380  0.1789  0.0347 -0.0543
    1CHOL    R531014  17.041  18.683   5.415  0.1657  0.0228 -0.1342
    1CHOL    C131015  17.173  18.594   5.069  0.3429  0.0671 -0.0804
    1CHOL    C231016  17.343  18.342   4.785  0.2489  0.0280  0.0452
    1CHOL   ROH31017  17.543   8.108   6.111 -0.1018 -0.0703 -0.0231
    1CHOL    R131018  17.487   8.139   5.835 -0.0988  0.0582 -0.0080
    1CHOL    R231019  17.542   8.372   5.697  0.1471  0.0245  0.0475
    1CHOL    R331020  17.678   8.204   5.532 -0.0613 -0.0853 -0.0198
    1CHOL    R431021  17.649   8.453   5.379  0.4640  0.1298  0.1756
    1CHOL    R531022  17.592   8.253   5.314  0.1311  0.2728 -0.0325
    1CHOL    C131023  17.840   8.343   5.038  0.4529  0.0879  0.1870
    1CHOL    C231024  18.130   8.421   4.753  0.1044  0.0398 -0.0501
    1CHOL   ROH31025  12.822  17.835   6.303 -0.1197  0.0418  0.0605
    1CHOL    R131026  12.965  17.761   6.070 -0.0452  0.2202  0.0501
    1CHOL    R231027  12.860  17.592   5.878  0.1959 -0.0066  0.1250
    1CHOL    R331028  12.921  17.798   5.711 -0.1828  0.0512  0.0456
    1CHOL    R431029  12.928  17.560   5.541  0.4365 -0.0631  0.1759
    1CHOL    R531030  13.086  17.708   5.563  0.1082  0.3216  0.1807
    1CHOL    C131031  13.025  17.735   5.188  0.2211 -0.0418  0.1308
    1CHOL    C231032  13.104  17.900   4.832 -0.1705  0.2155  0.0501
    1CHOL   ROH31033  14.422  26.987   3.755 -0.1116  0.0848  0.2028
    1CHOL    R131034  14.643  27.116   3.876  0.0921 -0.0223 -0.0451
    1CHOL    R231035  14.664  27.151   4.149  0.1767  0.4050 -0.0963
    1CHOL    R331036  14.903  27.027   4.115 -0.0023 -0.0010  0.0648
    1CHOL    R431037  14.921  27.152   4.379  0.1348  0.2044 -0.0464
    1CHOL    R531038  15.062  27.176   4.214  0.2115 -0.1602 -0.0363
    1CHOL    C131039  15.296  27.037   4.481 -0.0574 -0.2938  0.1338
    1CHOL    C231040  15.267  27.408   4.736  0.5640  0.0117  0.2199
    1CHOL   ROH31041  19.572  10.854   6.218 -0.0165  0.0348 -0.2008
    1CHOL    R131042  19.658  10.866   5.948  0.0223 -0.0234 -0.1913
    1CHOL    R231043  19.640  10.650   5.777 -0.0332 -0.0342 -0.1708
    1CHOL    R331044  19.505  10.826   5.620  0.0503 -0.0021 -0.2075
    1CHOL    R431045  19.588  10.613   5.437 -0.2031 -0.1770 -0.1305
    1CHOL    R531046  19.625  10.827   5.413 -0.0315 -0.2167 -0.2598
    1CHOL    C131047  19.430  10.757   5.093 -0.2237 -0.2300 -0.1416
    1CHOL    C231048  19.443  10.662   4.786  0.1196  0.0186  0.0274
    1CHOL   ROH31049  17.052  10.336   6.308 -0.3524  0.1637 -0.0994
    1CHOL    R131050  17.124  10.293   6.038 -0.2491 -0.0148 -0.0456
    1CHOL    R231051  16.975  10.134   5.868 -0.2334 -0.0562 -0.0238
    1CHOL    R331052  16.976  10.357   5.712 -0.0831 -0.1421 -0.1468
    1CHOL    R431053  16.932  10.135   5.525 -0.0676 -0.2297 -0.0466
    1CHOL    R531054  17.087  10.288   5.511 -0.0095 -0.2904 -0.0566
    1CHOL    C131055  16.908  10.345   5.179  0.1704 -0.4114 -0.1753
    1CHOL    C231056  16.760  10.181   4.939  0.2114  0.0187 -0.0411
    1CHOL   ROH31057   0.063  14.520   2.302 -0.1117 -0.2106  0.0404
    1CHOL    R131058  -0.138  14.589   2.489  0.0051  0.0189  0.0833
    1CHOL    R231059  -0.098  14.574   2.762  0.0520 -0.0098  0.0719
    1CHOL    R331060  -0.177  14.834   2.756  0.3307  0.0796  0.0813
    1CHOL    R431061  -0.167  14.766   3.041  0.0560 -0.0157  0.0775
    1CHOL    R531062  -0.336  14.851   2.934  0.2178  0.1951 -0.0254
    1CHOL    C131063  -0.281  15.122   3.197  0.3198  0.0647  0.0896
    1CHOL    C231064  -0.545  14.995   3.424  0.0081 -0.1054  0.1624
    1CHOL   ROH31065  13.311  15.277   6.290  0.1110 -0.0626 -0.1744
    1CHOL    R131066  13.216  15.407   6.057  0.0481 -0.0457 -0.1407
    1CHOL    R231067  13.381  15.474   5.845  0.0236  0.1174 -0.1160
    1CHOL    R331068  13.200  15.331   5.701  0.1139  0.0513 -0.1631
    1CHOL    R431069  13.350  15.483   5.501  0.0542  0.1567 -0.1169
    1CHOL    R531070  13.134  15.480   5.525  0.0580  0.0426 -0.1443
    1CHOL    C131071  13.162  15.355   5.166  0.1567  0.1176 -0.1616
    1CHOL    C231072  13.254  15.569   4.788 -0.0620 -0.3092  0.0119
    1CHOL   ROH31073  14.768  11.790   6.792 -0.0975 -0.2376 -0.0815
    1CHOL    R131074  14.702  11.901   6.540  0.0431 -0.1624 -0.0861
    1CHOL    R231075  14.877  11.897   6.325  0.0236 -0.4378 -0.1006
    1CHOL    R331076  14.667  11.779   6.199 -0.1634 -0.1447 -0.0726
    1CHOL    R431077  14.824  11.900   5.983 -0.0974 -0.2408 -0.0818
    1CHOL    R531078  14.612  11.929   6.021 -0.0531 -0.0069  0.0066
    1CHOL    C131079  14.596  11.791   5.666 -0.3432  0.1491 -0.0446
    1CHOL    C231080  14.848  11.965   5.372 -0.0427  0.3158 -0.0833
    1CHOL   ROH31081  21.309  18.229   2.898 -0.2026  0.0883 -0.0611
    1CHOL    R131082  21.380  18.134   3.155  0.1363  0.0201 -0.1755
    1CHOL    R231083  21.620  18.198   3.276  0.0905  0.3973 -0.2708
    1CHOL    R331084  21.459  18.280   3.479  0.0381 -0.0762 -0.1078
    1CHOL    R431085  21.715  18.220   3.608  0.1921  0.1897 -0.2841
    1CHOL    R531086  21.520  18.141   3.664  0.3372 -0.1841 -0.2816
    1CHOL    C131087  21.619  18.310   3.991  0.2019 -0.3759 -0.1388
    1CHOL    C231088  21.915  18.204   4.190 -0.0985  0.1487 -0.3716
    1CHOL   ROH31089   6.603  12.447   3.891  0.1724 -0.2180  0.1392
    1CHOL    R131090   6.672  12.384   4.158  0.0723 -0.1304  0.1852
    1CHOL    R231091   6.660  12.570   4.363 -0.0829 -0.0871  0.1321
    1CHOL    R331092   6.503  12.382   4.481 -0.0717 -0.1104  0.1123
    1CHOL    R431093   6.621  12.532   4.704 -0.1267 -0.0787  0.1290
    1CHOL    R531094   6.627  12.316   4.675 -0.0864 -0.0831  0.1351
    1CHOL    C131095   6.452  12.333   5.014 -0.1416 -0.0956  0.1087
    1CHOL    C231096   6.762  12.106   5.169  0.0086 -0.2003  0.3500
    1CHOL   ROH31097  17.606  11.308   2.860  0.0874  0.0026  0.1362
    1CHOL    R131098  17.760  11.354   3.093  0.0849  0.1295  0.1113
    1CHOL    R231099  17.866  11.601   3.154 -0.1233  0.2149  0.0985
    1CHOL    R331100  17.735  11.564   3.390 -0.0457  0.0980  0.1258
    1CHOL    R431101  17.983  11.704   3.463 -0.1738  0.3918  0.0616
    1CHOL    R531102  17.910  11.516   3.547  0.0463  0.3111  0.1016
    1CHOL    C131103  17.928  11.728   3.864 -0.1303  0.3851  0.0659
    1CHOL    C231104  17.879  12.015   4.132  0.0261  0.0683 -0.2118
    1CHOL   ROH31105  11.957  20.185   3.065  0.0449 -0.0164  0.0344
    1CHOL    R131106  11.956  20.284   3.330  0.0736 -0.0714  0.0554
    1CHOL    R231107  11.975  20.119   3.551  0.0430 -0.1222  0.0211
    1CHOL    R331108  12.183  20.283   3.615  0.0808 -0.1812  0.0489
    1CHOL    R431109  12.057  20.219   3.872  0.0927 -0.2255  0.0411
    1CHOL    R531110  12.100  20.418   3.794  0.1253 -0.2135  0.0930
    1CHOL    C131111  12.300  20.431   4.118  0.1573 -0.3409  0.0787
    1CHOL    C231112  12.632  20.715   4.109 -0.1020 -0.0382  0.0212
    1CHOL   ROH31113  12.007   6.710   4.236 -0.0673 -0.1482 -0.0179
    1CHOL    R131114  12.112   6.568   4.457  0.0943 -0.1178 -0.0732
    1CHOL    R231115  12.383   6.525   4.491  0.1516  0.1958 -0.0784
    1CHOL    R331116  12.337   6.639   4.734 -0.0046  0.0412 -0.0332
    1CHOL    R431117  12.564   6.459   4.778  0.1337  0.2171 -0.0621
    1CHOL    R531118  12.378   6.463   4.891  0.1046  0.0044 -0.1064
    1CHOL    C131119  12.628   6.527   5.172 -0.0235  0.0844 -0.0102
    1CHOL    C231120  12.595   6.331   5.506  0.3196 -0.2737 -0.1036
    1CHOL   ROH31121   0.012  24.122   2.891  0.1769  0.0147  0.2514
    1CHOL    R131122  -0.143  24.157   3.125  0.2761 -0.0419  0.3249
    1CHOL    R231123  -0.402  24.064   3.146  0.1679  0.2533  0.2829
    1CHOL    R331124  -0.306  23.940   3.368  0.0694 -0.1044  0.1361
    1CHOL    R431125  -0.598  23.939   3.402  0.0720  0.4057  0.2866
    1CHOL    R531126  -0.450  24.015   3.544  0.2963  0.0272  0.2738
    1CHOL    C131127  -0.621  23.751   3.761 -0.0763  0.1586  0.1509
    1CHOL    C231128  -0.706  24.042   3.973 -0.0827 -0.0571  0.0412
    1CHOL   ROH31129  12.496  21.819   6.236 -0.0351  0.0364  0.1103
    1CHOL    R131130  12.508  21.639   6.018 -0.1028 -0.0080  0.1434
    1CHOL    R231131  12.322  21.639   5.814 -0.0080  0.1382  0.0575
    1CHOL    R331132  12.543  21.662   5.657  0.0899 -0.0932  0.1547
    1CHOL    R431133  12.333  21.568   5.476  0.1049 -0.0129  0.0911
    1CHOL    R531134  12.529  21.477   5.505  0.0253 -0.1487  0.2261
    1CHOL    C131135  12.546  21.549   5.131  0.2625 -0.3181  0.2019
    1CHOL    C231136  12.723  21.376   4.862 -0.1106 -0.0729  0.0757
    1CHOL   ROH31137  29.842  11.924   5.280  0.2007  0.0181  0.0112
    1CHOL    R131138  29.849  11.692   5.119  0.1099  0.0725 -0.0726
    1CHOL    R231139  29.622  11.582   5.006  0.0291  0.0466  0.1095
    1CHOL    R331140  29.764  11.606   4.775 -0.1981  0.1630 -0.0211
    1CHOL    R431141  29.591  11.373   4.733  0.1329 -0.1395  0.2380
    1CHOL    R531142  29.807  11.380   4.709  0.1075  0.1960  0.0561
    1CHOL    C131143  29.706  11.273   4.357 -0.0197 -0.1386  0.1902
    1CHOL    C231144  29.763  10.878   4.280  0.2163  0.1376 -0.1667
    1CHOL   ROH31145  21.150   8.297   3.773 -0.1908  0.0501  0.0015
    1CHOL    R131146  21.033   8.503   3.928 -0.1929 -0.0458  0.1286
    1CHOL    R231147  20.961   8.468   4.192  0.1476 -0.1001  0.2178
    1CHOL    R331148  21.118   8.686   4.231  0.0023  0.0427  0.0241
    1CHOL    R431149  20.897   8.718   4.422  0.2131 -0.1802  0.3242
    1CHOL    R531150  20.963   8.864   4.274 -0.1145 -0.1029  0.2415
    1CHOL    C131151  21.008   9.069   4.592  0.1151 -0.0928  0.2044
    1CHOL    C231152  20.747   9.310   4.608  0.1662 -0.1299 -0.0125
    1CHOL   ROH31153  19.239  10.633   2.721  0.0523  0.0813 -0.0863
    1CHOL    R131154  19.123  10.808   2.911 -0.1355 -0.1499  0.0184
    1CHOL    R231155  19.039  10.723   3.160  0.1535 -0.3495  0.0549
    1CHOL    R331156  19.202  10.922   3.248 -0.1254 -0.0874 -0.0054
    1CHOL    R431157  19.096  10.799   3.492  0.0830 -0.1924  0.0317
    1CHOL    R531158  19.089  11.011   3.440 -0.2339 -0.2102 -0.0127
    1CHOL    C131159  19.282  11.030   3.768 -0.2198  0.1452 -0.0384
    1CHOL    C231160  19.272  10.918   4.098  0.2678  0.1180  0.3865
    1CHOL   ROH31161  11.419  13.511   3.335 -0.0321  0.1257 -0.2447
    1CHOL    R131162  11.595  13.604   3.535  0.0065  0.1501 -0.2876
    1CHOL    R231163  11.508  13.744   3.757  0.0348  0.0932 -0.2312
    1CHOL    R331164  11.642  13.550   3.892  0.1358  0.1078 -0.3125
    1CHOL    R431165  11.592  13.759   4.092 -0.0618 -0.0569 -0.2007
    1CHOL    R531166  11.785  13.670   4.042  0.0096  0.1120 -0.2022
    1CHOL    C131167  11.767  13.585   4.414 -0.0231 -0.1306 -0.2592
    1CHOL    C231168  11.970  13.760   4.621  0.0316  0.0727  0.2436
    1CHOL   ROH31169  19.395  18.631   6.041  0.1993 -0.0683 -0.1708
    1CHOL    R131170  19.262  18.649   5.792  0.1781 -0.1800 -0.1683
    1CHOL    R231171  19.243  18.886   5.651 -0.0602 -0.1843 -0.1469
    1CHOL    R331172  19.351  18.738   5.451  0.0889 -0.0594 -0.1616
    1CHOL    R431173  19.156  18.911   5.318 -0.1074 -0.2555 -0.1399
    1CHOL    R531174  19.167  18.694   5.304  0.1237 -0.2463 -0.1531
    1CHOL    C131175  19.206  18.785   4.935  0.0049 -0.1797 -0.1496
    1CHOL    C231176  19.014  18.842   4.574 -0.2041 -0.2403 -0.1541
    1CHOL   ROH31177   9.707  13.155   3.293  0.1571  0.1758  0.0660
    1CHOL    R131178   9.628  13.078   3.554  0.1323 -0.0679 -0.0092
    1CHOL    R231179   9.758  12.882   3.698  0.3497  0.0494 -0.0375
    1CHOL    R331180   9.777  13.078   3.886 -0.0330 -0.0077  0.0657
    1CHOL    R431181   9.836  12.829   4.030  0.3773  0.0166 -0.0502
    1CHOL    R531182   9.686  12.978   4.084  0.1000 -0.2712 -0.0029
    1CHOL    C131183   9.898  12.981   4.401  0.0342 -0.0561  0.0394
    1CHOL    C231184   9.609  12.861   4.591  0.1689  0.0698 -0.3605
    1CHOL   ROH31185  11.717  13.155   3.421 -0.0333  0.1924 -0.0297
    1CHOL    R131186  11.886  13.069   3.631 -0.0498  0.0436 -0.0770
    1CHOL    R231187  11.980  13.240   3.826 -0.0050 -0.0799  0.0076
    1CHOL    R331188  11.871  13.055   3.994 -0.0439 -0.1401 -0.0818
    1CHOL    R431189  11.944  13.280   4.168 -0.0587 -0.2069  0.0181
    1CHOL    R531190  12.002  13.072   4.194 -0.0738 -0.2230 -0.0525
    1CHOL    C131191  11.821  13.131   4.524 -0.1263 -0.3374 -0.0597
    1CHOL    C231192  11.877  13.303   4.852 -0.1360 -0.0660 -0.1523
    1CHOL   ROH31193  11.954  22.515   6.079  0.2466  0.0400  0.0203
    1CHOL    R131194  11.928  22.535   5.798  0.2033 -0.0823  0.0157
    1CHOL    R231195  12.081  22.707   5.646  0.1196 -0.0878 -0.0718
    1CHOL    R331196  12.141  22.481   5.508  0.1849 -0.1200  0.0083
    1CHOL    R431197  12.258  22.699   5.350 -0.0290 -0.1204 -0.1615
    1CHOL    R531198  12.121  22.545   5.278  0.0243 -0.2419 -0.0151
    1CHOL    C131199  12.419  22.481   5.048 -0.0543 -0.1695 -0.1385
    1CHOL    C231200  12.282  22.453   4.725  0.0330  0.0906 -0.0907
    1CHOL   ROH31201  17.299  19.353   3.068  0.0460 -0.2485 -0.0407
    1CHOL    R131202  17.335  19.205   3.307 -0.1002 -0.1715  0.0298
    1CHOL    R231203  17.504  19.288   3.509 -0.0925 -0.1935  0.0298
    1CHOL    R331204  17.281  19.260   3.662 -0.1440  0.0119 -0.0035
    1CHOL    R431205  17.502  19.274   3.855 -0.1801  0.0250  0.0404
    1CHOL    R531206  17.350  19.118   3.843 -0.2544  0.0896  0.1035
    1CHOL    C131207  17.292  19.239   4.200 -0.2793  0.3452  0.0152
    1CHOL    C231208  17.277  19.410   4.619 -0.1365  0.1057 -0.2177
    1CHOL   ROH31209   5.719  11.663   6.094  0.0137 -0.0215  0.0604
    1CHOL    R131210   5.809  11.700   5.829  0.1254  0.0035  0.1016
    1CHOL    R231211   5.641  11.681   5.611  0.2290 -0.0297  0.0268
    1CHOL    R331212   5.737  11.929   5.555  0.1991 -0.0075  0.0718
    1CHOL    R431213   5.642  11.826   5.297  0.2112  0.0233  0.0508
    1CHOL    R531214   5.840  11.906   5.340  0.2035  0.0408  0.0665
    1CHOL    C131215   5.732  12.144   5.062  0.1729  0.0751  0.1070
    1CHOL    C231216   5.710  12.109   4.656  0.0150  0.1048 -0.0836
    1CHOL   ROH31217  18.085  19.076   6.058  0.0458  0.1994  0.0141
    1CHOL    R131218  18.186  19.136   5.800 -0.0232  0.0724 -0.0438
    1CHOL    R231219  18.217  18.944   5.604 -0.1925 -0.0036  0.0002
    1CHOL    R331220  18.065  19.115   5.458 -0.1660  0.0271  0.0090
    1CHOL    R431221  18.139  18.903   5.270 -0.1678  0.0460 -0.0115
    1CHOL    R531222  18.168  19.117   5.242 -0.1480  0.0464  0.0184
    1CHOL    C131223  17.950  19.040   4.938 -0.1281  0.1037 -0.0100
    1CHOL    C231224  17.591  19.111   4.838 -0.1481 -0.1084  0.1663
    1CHOL   ROH31225  14.464  14.346   6.345  0.0278  0.0181 -0.0226
    1CHOL    R131226  14.323  14.325   6.101  0.0577  0.0521 -0.0435
    1CHOL    R231227  14.356  14.505   5.894  0.1349  0.0417 -0.0421
    1CHOL    R331228  14.406  14.281   5.749  0.0979  0.0265 -0.0307
    1CHOL    R431229  14.322  14.479   5.551 -0.1669 -0.0576 -0.0067
    1CHOL    R531230  14.238  14.280   5.579 -0.0584 -0.0867  0.1215
    1CHOL    C131231  14.349  14.253   5.216 -0.3773 -0.1296  0.0246
    1CHOL    C231232  14.459  14.279   4.826  0.0983 -0.2197 -0.1356
    1CHOL   ROH31233  15.833  19.925   2.995  0.1385 -0.0639 -0.0484
    1CHOL    R131234  15.806  19.834   3.262  0.1080  0.0102 -0.0252
    1CHOL    R231235  16.020  19.813   3.435  0.1049 -0.0301 -0.0221
    1CHOL    R331236  15.865  19.968   3.595  0.1653  0.0690 -0.0597
    1CHOL    R431237  15.979  19.766   3.775 -0.0926 -0.0669 -0.0504
    1CHOL    R531238  15.768  19.814   3.750 -0.0398  0.1207 -0.1368
    1CHOL    C131239  15.809  19.885   4.123 -0.1510  0.0049 -0.1023
    1CHOL    C231240  15.887  19.979   4.493 -0.3240  0.2657 -0.3465
    1CHOL   ROH31241  14.782  21.286   6.498 -0.0519 -0.0228  0.1078
    1CHOL    R131242  14.785  21.424   6.251  0.0027  0.0227  0.1333
    1CHOL    R231243  14.973  21.373   6.055  0.0085  0.0133  0.1395
    1CHOL    R331244  14.753  21.335   5.899  0.0115  0.0941  0.1151
    1CHOL    R431245  14.971  21.387   5.710 -0.0255  0.3652  0.1494
    1CHOL    R531246  14.780  21.492   5.720 -0.0599  0.2871  0.2709
    1CHOL    C131247  14.764  21.359   5.362 -0.0426  0.6461  0.1324
    1CHOL    C231248  14.563  21.290   5.075 -0.1589  0.1185 -0.0235
    1CHOL   ROH31249  19.029  26.745   6.061 -0.0308  0.1291 -0.0626
    1CHOL    R131250  18.946  26.545   5.879 -0.0077  0.0729 -0.0122
    1CHOL    R231251  18.684  26.523   5.792  0.0119  0.0790 -0.0802
    1CHOL    R331252  18.799  26.535   5.546  0.0872 -0.0281 -0.0506
    1CHOL    R431253  18.511  26.538   5.493  0.1040  0.3898 -0.1217
    1CHOL    R531254  18.657  26.401   5.407 -0.0685  0.2025 -0.1152
    1CHOL    C131255  18.518  26.558   5.088  0.2282  0.4701 -0.1180
    1CHOL    C231256  18.259  26.655   4.774  0.0174 -0.1496  0.1408
    1CHOL   ROH31257  16.015   7.744   3.795 -0.2142  0.2926 -0.0101
    1CHOL    R131258  16.027   7.909   4.025 -0.1523  0.1207  0.1107
    1CHOL    R231259  16.142   7.825   4.262 -0.0531 -0.0424  0.0029
    1CHOL    R331260  16.288   8.052   4.234 -0.0960  0.0017  0.1245
    1CHOL    R431261  16.253   8.021   4.524 -0.2804 -0.0441  0.1038
    1CHOL    R531262  16.205   8.198   4.405 -0.2521 -0.0412  0.0900
    1CHOL    C131263  16.455   8.349   4.650 -0.4530 -0.0036  0.2766
    1CHOL    C231264  16.594   8.400   4.952 -0.0838  0.1055  0.2902
    1CHOL   ROH31265  17.776  13.888   6.145  0.0503 -0.3508 -0.1167
    1CHOL    R131266  17.901  13.966   5.903  0.0170 -0.1161 -0.0606
    1CHOL    R231267  18.025  13.785   5.735  0.1897  0.0763 -0.1428
    1CHOL    R331268  17.860  13.895   5.549  0.1218  0.0388 -0.1054
    1CHOL    R431269  18.011  13.691   5.402  0.3503  0.2691 -0.2061
    1CHOL    R531270  17.991  13.901   5.349  0.1615  0.2895 -0.0767
    1CHOL    C131271  17.848  13.739   5.034  0.3800  0.3463 -0.2078
    1CHOL    C231272  17.848  13.627   4.664  0.1324  0.0438  0.3231
    1CHOL   ROH31273  22.984  18.278   2.595 -0.2168  0.0959 -0.1709
    1CHOL    R131274  23.105  18.311   2.849 -0.0830  0.1126 -0.2367
    1CHOL    R231275  23.144  18.560   2.963 -0.3327  0.1026 -0.1289
    1CHOL    R331276  23.009  18.449   3.172 -0.0427 -0.1947 -0.0890
    1CHOL    R431277  23.226  18.602   3.296 -0.2681  0.2008 -0.1564
    1CHOL    R531278  23.180  18.392   3.329  0.1414  0.0975 -0.1712
    1CHOL    C131279  23.147  18.524   3.686  0.0416 -0.0211 -0.1350
    1CHOL    C231280  23.077  18.563   4.044 -0.0841 -0.0539 -0.0560
    1CHOL   ROH31281  13.038   9.119   3.992  0.0351  0.1203 -0.1375
    1CHOL    R131282  12.954   9.259   4.223 -0.0491  0.0868 -0.1463
    1CHOL    R231283  12.970   9.151   4.477 -0.1834  0.0308 -0.1563
    1CHOL    R331284  13.109   9.378   4.530 -0.1686 -0.0030 -0.0521
    1CHOL    R431285  13.048   9.265   4.793 -0.3023 -0.0311 -0.1045
    1CHOL    R531286  13.004   9.467   4.726 -0.2358 -0.0168 -0.0865
    1CHOL    C131287  13.224   9.545   5.028 -0.3577 -0.0989  0.0237
    1CHOL    C231288  13.149   9.575   5.447 -0.1510  0.1006 -0.0770
    1CHOL   ROH31289  12.658   1.707   5.153  0.0184  0.1354 -0.0618
    1CHOL    R131290  12.688   1.466   5.299  0.0192  0.1535 -0.0326
    1CHOL    R231291  12.627   1.218   5.192 -0.1094  0.1532  0.0441
    1CHOL    R331292  12.882   1.160   5.266 -0.0894  0.0879 -0.0731
    1CHOL    R431293  12.743   0.903   5.273 -0.1230  0.1015 -0.1333
    1CHOL    R531294  12.859   0.991   5.435 -0.0519  0.0179 -0.1356
    1CHOL    C131295  13.049   0.664   5.389 -0.1121  0.0102 -0.3466
    1CHOL    C231296  13.348   0.455   5.470  0.1396 -0.0560 -0.0452
    1CHOL   ROH31297  27.349  22.193   3.308 -0.1308 -0.0999  0.1776
    1CHOL    R131298  27.207  22.176   3.553 -0.0857  0.0607  0.2153
    1CHOL    R231299  27.333  22.131   3.795 -0.0459  0.1980  0.2149
    1CHOL    R331300  27.202  22.358   3.868 -0.0136  0.2518  0.1103
    1CHOL    R431301  27.240  22.211   4.118 -0.4159  0.1400  0.1275
    1CHOL    R531302  27.052  22.287   4.040 -0.2813  0.2732 -0.1001
    1CHOL    C131303  27.063  22.471   4.375 -0.6008  0.1568 -0.0217
    1CHOL    C231304  27.078  22.856   4.405 -0.1074  0.2026 -0.0611
    1CHOL   ROH31305  10.128   3.713   6.301 -0.0996  0.0021  0.0869
    1CHOL    R131306  10.337   3.742   6.112 -0.0667 -0.0078  0.1219
    1CHOL    R231307  10.327   3.628   5.860 -0.0163 -0.0339  0.1314
    1CHOL    R331308  10.373   3.883   5.778 -0.0130 -0.0396  0.1146
    1CHOL    R431309  10.541   3.717   5.604  0.0573 -0.0409  0.1895
    1CHOL    R531310  10.606   3.887   5.724  0.0026 -0.0217  0.1888
    1CHOL    C131311  10.709   4.008   5.377  0.1033 -0.0503  0.2076
    1CHOL    C231312  11.161   3.978   5.454 -0.2809  0.0342 -0.1211
    1CHOL   ROH31313  15.999  14.289   2.861 -0.2196 -0.0208  0.0672
    1CHOL    R131314  15.903  14.384   3.110 -0.0773  0.2139  0.0360
    1CHOL    R231315  15.845  14.215   3.321 -0.4439  0.3570  0.0597
    1CHOL    R331316  16.016  14.378   3.456 -0.1382  0.0523  0.0530
    1CHOL    R431317  15.899  14.207   3.662 -0.3595  0.1971  0.0433
    1CHOL    R531318  15.904  14.424   3.662 -0.0053  0.1910  0.0927
    1CHOL    C131319  16.091  14.355   3.987 -0.0234 -0.1820  0.0276
    1CHOL    C231320  16.220  14.291   4.319 -0.2400  0.1330 -0.0616
    1CHOL   ROH31321  17.057  13.651   2.899 -0.1444 -0.1143 -0.0865
    1CHOL    R131322  17.057  13.804   3.137 -0.0346 -0.0894 -0.1031
    1CHOL    R231323  17.012  13.692   3.385 -0.0544 -0.0396 -0.0906
    1CHOL    R331324  17.248  13.811   3.447  0.0126 -0.1482 -0.1286
    1CHOL    R431325  17.148  13.707   3.703 -0.1514  0.1492 -0.0560
    1CHOL    R531326  17.209  13.913   3.661  0.0082  0.0762 -0.2278
    1CHOL    C131327  17.449  13.829   3.945 -0.1448  0.1571 -0.0714
    1CHOL    C231328  17.556  13.896   4.339 -0.2763  0.3098 -0.1932
    1CHOL   ROH31329  13.826  12.082   6.939 -0.1417 -0.0620  0.1043
    1CHOL    R131330  13.664  12.103   6.709 -0.0813  0.0541  0.0707
    1CHOL    R231331  13.753  12.216   6.474  0.0411  0.0098  0.0915
    1CHOL    R331332  13.673  11.980   6.366 -0.0871  0.0646  0.0677
    1CHOL    R431333  13.691  12.164   6.138  0.1587  0.0343  0.0661
    1CHOL    R531334  13.518  12.044   6.194  0.0420  0.1692 -0.0086
    1CHOL    C131335  13.579  11.912   5.841  0.1069  0.1001  0.0290
    1CHOL    C231336  13.518  11.917   5.463  0.3434 -0.1038  0.3752
    1CHOL   ROH31337  22.016  14.945   2.114  0.0929  0.0894  0.1088
    1CHOL    R131338  21.914  14.915   2.376  0.0723 -0.0544  0.0858
    1CHOL    R231339  22.067  14.818   2.585  0.1219  0.0316  0.0929
    1CHOL    R331340  21.990  15.049   2.706 -0.0985 -0.0573  0.1263
    1CHOL    R431341  22.024  14.858   2.926 -0.0668 -0.0936  0.0848
    1CHOL    R531342  21.847  14.979   2.884 -0.1314 -0.2079  0.0391
    1CHOL    C131343  21.926  15.099   3.237 -0.3833 -0.2499  0.1115
    1CHOL    C231344  21.852  15.111   3.621  0.3606 -0.1167 -0.1705
    1CHOL   ROH31345   6.016   3.762   5.695 -0.0117  0.2382 -0.1115
    1CHOL    R131346   5.898   3.743   5.439  0.1642 -0.0783 -0.1744
    1CHOL    R231347   5.795   3.962   5.306 -0.3048 -0.3311 -0.2485
    1CHOL    R331348   5.961   3.880   5.108  0.0112  0.0482 -0.1525
    1CHOL    R431349   5.792   4.086   4.984 -0.2493 -0.1843 -0.1933
    1CHOL    R531350   5.824   3.882   4.911  0.1674 -0.1016 -0.2660
    1CHOL    C131351   5.947   4.081   4.609  0.0797  0.2574 -0.0709
    1CHOL    C231352   5.591   4.213   4.378 -0.0036  0.2498 -0.0245
    1CHOL   ROH31353  28.786  17.834   4.928 -0.0572 -0.0523 -0.0018
    1CHOL    R131354  28.767  17.824   4.646 -0.0036  0.1307 -0.0132
    1CHOL    R231355  28.752  17.586   4.506  0.2362  0.2122 -0.1862
    1CHOL    R331356  28.528  17.700   4.401  0.1468  0.0834 -0.1373
    1CHOL    R431357  28.634  17.533   4.185  0.0840 -0.0090 -0.0958
    1CHOL    R531358  28.585  17.745   4.173  0.0139 -0.0309 -0.1937
    1CHOL    C131359  28.355  17.609   3.900 -0.0885 -0.2587  0.0026
    1CHOL    C231360  28.306  17.433   3.610  0.0719 -0.0396  0.2261
    1CHOL   ROH31361   4.975  26.671   5.835  0.0420  0.1826  0.1475
    1CHOL    R131362   5.099  26.763   5.598  0.0526  0.1526  0.1412
    1CHOL    R231363   4.955  26.849   5.379  0.0610  0.0119  0.0778
    1CHOL    R331364   5.107  27.073   5.407 -0.0432  0.0889  0.0338
    1CHOL    R431365   5.027  27.073   5.125  0.2013 -0.1582 -0.0350
    1CHOL    R531366   5.230  27.088   5.202  0.1289 -0.0267  0.1287
    1CHOL    C131367   5.210  27.413   5.004  0.1853 -0.1852 -0.1420
    1CHOL    C231368   5.625  27.550   4.964 -0.0497  0.2972  0.0670
    1CHOL   ROH31369  27.560  10.269   5.412 -0.0888  0.0634 -0.1597
    1CHOL    R131370  27.621  10.234   5.137 -0.1581 -0.2405 -0.1415
    1CHOL    R231371  27.543  10.010   4.995 -0.5674 -0.2175  0.0155
    1CHOL    R331372  27.432  10.194   4.828 -0.2503 -0.1259 -0.0982
    1CHOL    R431373  27.511   9.972   4.653 -0.2565 -0.1734 -0.0194
    1CHOL    R531374  27.566  10.182   4.630 -0.0652 -0.2243  0.0370
    1CHOL    C131375  27.389  10.123   4.297  0.2223 -0.0618 -0.1465
    1CHOL    C231376  27.355  10.114   3.956  0.0443  0.0535  0.2561
    1CHOL   ROH31377  28.933  15.945   2.368  0.1747 -0.0090  0.0489
    1CHOL    R131378  28.765  15.912   2.593  0.1498  0.0916  0.0455
    1CHOL    R231379  28.775  15.689   2.755  0.0717  0.1261  0.0953
    1CHOL    R331380  28.807  15.873   2.952  0.1125  0.1581  0.0578
    1CHOL    R431381  28.710  15.634   3.090 -0.1263  0.2574  0.0799
    1CHOL    R531382  28.624  15.834   3.101  0.0101  0.3263 -0.0162
    1CHOL    C131383  28.702  15.775   3.470 -0.2028  0.3640  0.0357
    1CHOL    C231384  28.771  15.462   3.757  0.1442  0.3352  0.0451
    1CHOL   ROH31385  29.916  22.142   4.911 -0.0118 -0.1974  0.1993
    1CHOL    R131386  29.898  22.195   4.634 -0.0725 -0.0299  0.2341
    1CHOL    R231387  30.020  22.414   4.517  0.0856 -0.0771  0.3064
    1CHOL    R331388  30.131  22.225   4.355 -0.1529 -0.0954  0.1595
    1CHOL    R431389  30.184  22.480   4.220  0.0964 -0.0596  0.3165
    1CHOL    R531390  30.087  22.305   4.133 -0.1146  0.0992  0.2195
    1CHOL    C131391  30.383  22.342   3.895 -0.1212 -0.0664  0.1845
    1CHOL    C231392  30.699  22.531   3.539  0.0114 -0.1821  0.0504
    1CHOL   ROH31393   4.206   9.167   6.009  0.1259 -0.1946  0.1909
    1CHOL    R131394   4.318   9.259   5.766  0.1173 -0.1673  0.1977
    1CHOL    R231395   4.228   9.174   5.519  0.0651 -0.0880  0.1922
    1CHOL    R331396   4.202   9.440   5.473  0.1265 -0.0707  0.2523
    1CHOL    R431397   4.213   9.319   5.206 -0.1272 -0.0432  0.2207
    1CHOL    R531398   4.339   9.481   5.280 -0.0060 -0.0975  0.1477
    1CHOL    C131399   4.179   9.654   4.980 -0.1814 -0.0007  0.2936
    1CHOL    C231400   4.259   9.488   4.757  0.1610 -0.1570 -0.0819
    1CHOL   ROH31401   6.784  11.546   3.668  0.0285 -0.0767  0.1058
    1CHOL    R131402   6.763  11.714   3.895  0.0757 -0.0476  0.0889
    1CHOL    R231403   6.581  11.922   3.910  0.0680 -0.0556  0.1062
    1CHOL    R331404   6.506  11.797   4.139  0.1317 -0.0295  0.1416
    1CHOL    R431405   6.390  12.065   4.159  0.0263 -0.0707  0.0831
    1CHOL    R531406   6.518  11.968   4.307  0.0742  0.0160  0.0992
    1CHOL    C131407   6.208  12.032   4.520  0.0618 -0.0551  0.1030
    1CHOL    C231408   6.228  11.948   4.821  0.0475 -0.1449 -0.1377
    1CHOL   ROH31409  20.254   6.550   3.687  0.1337  0.2339 -0.0123
    1CHOL    R131410  20.218   6.736   3.897  0.1643  0.2038  0.0203
    1CHOL    R231411  20.277   6.677   4.160  0.0383  0.1050  0.0302
    1CHOL    R331412  20.429   6.902   4.142  0.1732  0.0237  0.1352
    1CHOL    R431413  20.394   6.858   4.430  0.0622 -0.0276  0.1093
    1CHOL    R531414  20.349   7.041   4.321  0.2013  0.0246  0.1440
    1CHOL    C131415  20.604   7.175   4.571  0.2026 -0.1811  0.2539
    1CHOL    C231416  20.514   7.111   4.896  0.0098  0.2079 -0.0031
    1CHOL   ROH31417  29.830   0.107   6.180 -0.1239 -0.4028 -0.1244
    1CHOL    R131418  29.881   0.041   5.910 -0.3048 -0.2969 -0.1859
    1CHOL    R231419  29.725   0.135   5.702 -0.1591  0.1909 -0.0896
    1CHOL    R331420  29.963   0.223   5.605  0.0120 -0.2148 -0.0562
    1CHOL    R431421  29.808   0.149   5.367 -0.2356  0.3921 -0.1013
    1CHOL    R531422  30.008   0.079   5.419 -0.3620 -0.1093 -0.2383
    1CHOL    C131423  30.080   0.240   5.081 -0.1193  0.1284 -0.0768
    1CHOL    C231424  29.957   0.198   4.716 -0.0905  0.1169 -0.1221
    1CHOL   ROH31425  12.023   7.644   4.126  0.3167 -0.2540 -0.1019
    1CHOL    R131426  11.927   7.689   4.388  0.2545  0.0191 -0.1689
    1CHOL    R231427  11.985   7.519   4.599 -0.0364  0.0770 -0.0429
    1CHOL    R331428  12.073   7.748   4.716  0.1825  0.0467 -0.1403
    1CHOL    R431429  12.025   7.564   4.939 -0.0472  0.1975 -0.0561
    1CHOL    R531430  11.945   7.765   4.917  0.1624  0.2760 -0.1675
    1CHOL    C131431  12.131   7.806   5.247  0.1521  0.2392 -0.1553
    1CHOL    C231432  11.958   7.729   5.594 -0.1164  0.1273 -0.0085
    1CHOL   ROH31433  22.269  13.007   2.852  0.2426  0.1619  0.0028
    1CHOL    R131434  22.264  13.048   3.132  0.2865  0.2699 -0.0101
    1CHOL    R231435  22.260  13.301   3.245  0.0682  0.3210 -0.1073
    1CHOL    R331436  22.039  13.205   3.371  0.1994  0.1440 -0.0125
    1CHOL    R431437  22.141  13.413   3.550  0.0974  0.2167 -0.0586
    1CHOL    R531438  22.097  13.207   3.603  0.2873  0.1880 -0.0408
    1CHOL    C131439  21.864  13.388   3.845  0.2375 -0.0103  0.0588
    1CHOL    C231440  21.858  13.315   4.209 -0.2053  0.1740  0.1563
    1CHOL   ROH31441  21.676  10.577   3.110  0.1520  0.0158  0.0789
    1CHOL    R131442  21.540  10.739   3.298  0.1508  0.1091 -0.0001
    1CHOL    R231443  21.267  10.726   3.335  0.1531  0.0903  0.0434
    1CHOL    R331444  21.337  10.686   3.595  0.1967  0.2537  0.0569
    1CHOL    R431445  21.081  10.828   3.608 -0.0372 -0.1551  0.0078
    1CHOL    R531446  21.267  10.885   3.707 -0.1359  0.1644  0.0129
    1CHOL    C131447  21.038  10.850   4.011 -0.1072 -0.1445 -0.0002
    1CHOL    C231448  20.851  11.098   4.236  0.0638  0.2955  0.0058
    1CHOL   ROH31449  14.805  17.436   6.401  0.0986 -0.2163  0.0263
    1CHOL    R131450  14.931  17.488   6.153  0.0500 -0.2359 -0.0021
    1CHOL    R231451  14.984  17.289   5.969 -0.1165 -0.2286 -0.0583
    1CHOL    R331452  14.846  17.451   5.801 -0.0793 -0.1186  0.0157
    1CHOL    R431453  15.044  17.320   5.630 -0.1205 -0.1019 -0.0482
    1CHOL    R531454  15.011  17.534   5.648 -0.0613 -0.0991  0.0445
    1CHOL    C131455  14.949  17.490   5.275 -0.0879  0.0750  0.0273
    1CHOL    C231456  15.011  17.597   4.984 -0.2487  0.0147  0.0757
    1CHOL   ROH31457  14.283  22.967   5.956  0.0356  0.0237 -0.0415
    1CHOL    R131458  14.387  23.008   5.696 -0.0393 -0.1336 -0.0981
    1CHOL    R231459  14.387  22.811   5.503 -0.2405 -0.2046 -0.0315
    1CHOL    R331460  14.258  22.999   5.356 -0.1804 -0.1734 -0.0440
    1CHOL    R431461  14.408  22.840   5.159 -0.0956 -0.1223 -0.0163
    1CHOL    R531462  14.415  23.057   5.184 -0.1097 -0.1298  0.0363
    1CHOL    C131463  14.299  23.034   4.821  0.0453 -0.0451 -0.0192
    1CHOL    C231464  14.461  22.844   4.534 -0.1617  0.0818 -0.2294
    1CHOL   ROH31465  18.262  18.515   2.540  0.1625 -0.1951 -0.0644
    1CHOL    R131466  18.308  18.630   2.794 -0.0987 -0.1060 -0.0547
    1CHOL    R231467  18.103  18.690   2.970 -0.2540 -0.4526 -0.1090
    1CHOL    R331468  18.248  18.536   3.141 -0.0288 -0.2035 -0.0684
    1CHOL    R431469  18.090  18.711   3.315 -0.3578 -0.4484 -0.1127
    1CHOL    R531470  18.305  18.684   3.320 -0.3084 -0.0903 -0.0666
    1CHOL    C131471  18.218  18.579   3.676 -0.2069 -0.2122 -0.0768
    1CHOL    C231472  18.326  18.801   3.803 -0.1824  0.2752 -0.1116
    1CHOL   ROH31473  15.787  12.857   6.661 -0.0387 -0.1715  0.0183
    1CHOL    R131474  15.733  12.737   6.410 -0.1333 -0.0806 -0.0046
    1CHOL    R231475  15.483  12.743   6.293 -0.1115  0.1960 -0.0322
    1CHOL    R331476  15.620  12.848   6.082  0.0205  0.0829 -0.0062
    1CHOL    R431477  15.429  12.661   5.962 -0.0103  0.1140 -0.0298
    1CHOL    R531478  15.645  12.664   5.930  0.0117  0.0205  0.0596
    1CHOL    C131479  15.525  12.712   5.571  0.1726 -0.0400 -0.0041
    1CHOL    C231480  15.378  12.842   5.142 -0.1698 -0.2141 -0.1454
    1CHOL   ROH31481  19.590  11.898   2.480 -0.1103 -0.0210 -0.0654
    1CHOL    R131482  19.460  11.874   2.731 -0.0716 -0.0649 -0.0484
    1CHOL    R231483  19.559  11.714   2.934  0.0224 -0.0150 -0.0474
    1CHOL    R331484  19.542  11.944   3.078 -0.0591 -0.0116 -0.0636
    1CHOL    R431485  19.626  11.742   3.272 -0.0960  0.0200 -0.0269
    1CHOL    R531486  19.456  11.876   3.290 -0.1177 -0.0074 -0.0905
    1CHOL    C131487  19.650  11.973   3.604 -0.2416  0.0435 -0.0302
    1CHOL    C231488  19.745  11.842   3.844  0.0905 -0.0759  0.0697
    1CHOL   ROH31489  16.340  25.669   6.395 -0.1594  0.0829  0.0159
    1CHOL    R131490  16.149  25.777   6.216 -0.1981  0.1007  0.0664
    1CHOL    R231491  16.202  25.995   6.055 -0.2432  0.1404  0.0972
    1CHOL    R331492  16.122  25.828   5.856 -0.2562  0.1673  0.0811
    1CHOL    R431493  16.125  26.093   5.733  0.1093  0.1257  0.0046
    1CHOL    R531494  15.958  25.953   5.735 -0.0339  0.2972 -0.0868
    1CHOL    C131495  16.004  25.993   5.359  0.3021  0.1424 -0.0645
    1CHOL    C231496  15.876  26.264   5.051 -0.5238 -0.1801 -0.0942
    1CHOL   ROH31497  16.265  15.410   6.139 -0.0884  0.1785  0.0464
    1CHOL    R131498  16.331  15.308   5.883 -0.0550  0.1510  0.0650
    1CHOL    R231499  16.140  15.247   5.693 -0.0432 -0.0169  0.0984
    1CHOL    R331500  16.289  15.413   5.538 -0.1605  0.0369  0.0440
    1CHOL    R431501  16.135  15.251   5.348  0.0027 -0.1691  0.0957
    1CHOL    R531502  16.351  15.278   5.350 -0.0237  0.0099  0.1123
    1CHOL    C131503  16.272  15.409   5.000 -0.0806 -0.2073  0.0432
    1CHOL    C231504  16.332  15.027   4.812  0.0618 -0.0467 -0.1410
    1CHOL   ROH31505  13.321  22.664   5.470 -0.0452  0.0132  0.2833
    1CHOL    R131506  13.312  22.572   5.202 -0.0654  0.0569  0.2690
    1CHOL    R231507  13.247  22.737   4.990  0.0845  0.1326  0.2817
    1CHOL    R331508  13.484  22.648   4.890  0.0397 -0.0188  0.3075
    1CHOL    R431509  13.317  22.696   4.654  0.0165 -0.1331  0.2980
    1CHOL    R531510  13.422  22.512   4.704 -0.0369 -0.1345  0.4149
    1CHOL    C131511  13.580  22.589   4.365 -0.0652 -0.4300  0.3317
    1CHOL    C231512  13.711  22.742   4.108  0.0359  0.0627  0.1132
    1CHOL   ROH31513   5.441  22.001   2.774 -0.0155 -0.0407 -0.0479
    1CHOL    R131514   5.535  21.966   3.038 -0.1258  0.0093  0.0001
    1CHOL    R231515   5.426  21.779   3.211 -0.0771 -0.0916 -0.0686
    1CHOL    R331516   5.684  21.696   3.232 -0.0225  0.1040  0.0517
    1CHOL    R431517   5.559  21.612   3.483 -0.0801 -0.0186 -0.0235
    1CHOL    R531518   5.740  21.731   3.461 -0.1625  0.1210  0.0809
    1CHOL    C131519   5.879  21.436   3.660 -0.0307  0.2080  0.1158
    1CHOL    C231520   6.317  21.335   3.755 -0.1330 -0.1515 -0.1638
    1CHOL   ROH31521  20.502   9.928   6.217 -0.0936  0.0449  0.0116
    1CHOL    R131522  20.469   9.852   5.946 -0.0583  0.1422 -0.0211
    1CHOL    R231523  20.528  10.021   5.736  0.1784  0.1457  0.0409
    1CHOL    R331524  20.684   9.814   5.655  0.0235  0.0224  0.0550
    1CHOL    R431525  20.560   9.913   5.409  0.0932  0.0874  0.0521
    1CHOL    R531526  20.558   9.708   5.482 -0.0559  0.0978  0.0699
    1CHOL    C131527  20.725   9.655   5.143 -0.1018 -0.0623  0.0720
    1CHOL    C231528  20.561   9.704   4.845 -0.0170  0.0991  0.2011
    1CHOL   ROH31529  23.317  12.448   2.989 -0.0376  0.0095  0.0411
    1CHOL    R131530  23.184  12.388   3.232  0.0243  0.0304  0.0800
    1CHOL    R231531  23.046  12.152   3.272 -0.0769  0.0912  0.0870
    1CHOL    R331532  23.208  12.132   3.490 -0.0039 -0.0288  0.0241
    1CHOL    R431533  22.973  11.970   3.556  0.0683 -0.1526 -0.0274
    1CHOL    R531534  23.057  12.132   3.676  0.0543 -0.2187  0.0724
    1CHOL    C131535  23.082  11.846   3.927  0.2211 -0.4074 -0.1531
    1CHOL    C231536  23.059  11.593   4.188  0.1808  0.1750  0.1173
    1CHOL   ROH31537  12.977  11.557   6.903 -0.0684  0.0614 -0.2124
    1CHOL    R131538  12.900  11.449   6.653 -0.0213 -0.1916 -0.1192
    1CHOL    R231539  13.050  11.483   6.425 -0.1641 -0.1065 -0.1944
    1CHOL    R331540  13.037  11.212   6.414  0.2153 -0.1387 -0.0407
    1CHOL    R431541  13.013  11.299   6.134 -0.3655 -0.2903 -0.0576
    1CHOL    R531542  12.876  11.167   6.241 -0.0083 -0.4511  0.2313
    1CHOL    C131543  12.980  10.937   5.955 -0.1267 -0.4275  0.1664
    1CHOL    C231544  13.227  10.862   5.723 -0.2244 -0.1313 -0.4606
    1CHOL   ROH31545   6.467  29.754   4.043 -0.1091  0.1488 -0.1241
    1CHOL    R131546   6.511  29.596   4.274 -0.0593  0.1173 -0.1554
    1CHOL    R231547   6.519  29.704   4.529 -0.0903  0.0702 -0.1360
    1CHOL    R331548   6.329  29.516   4.579 -0.0325  0.0017 -0.1687
    1CHOL    R431549   6.391  29.630   4.841 -0.0706 -0.0196 -0.1485
    1CHOL    R531550   6.394  29.419   4.787 -0.0034 -0.0117 -0.1827
    1CHOL    C131551   6.138  29.411   5.070 -0.0049 -0.1364 -0.1864
    1CHOL    C231552   6.206  29.075   5.217 -0.3199  0.1277 -0.2105
    1CHOL   ROH31553  15.923  23.416   6.016  0.4998 -0.0368  0.3516
    1CHOL    R131554  16.007  23.388   5.747  0.2823  0.0375  0.2739
    1CHOL    R231555  16.062  23.604   5.585  0.2426  0.0802  0.3183
    1CHOL    R331556  16.300  23.477   5.551  0.1681 -0.0001  0.0832
    1CHOL    R431557  16.208  23.538   5.279  0.0864  0.3530  0.1815
    1CHOL    R531558  16.268  23.343   5.355  0.0227  0.2337 -0.0597
    1CHOL    C131559  16.516  23.380   5.068 -0.0745  0.4364 -0.1190
    1CHOL    C231560  16.591  23.182   4.854  0.2102  0.0414 -0.0721
    1CHOL   ROH31561  14.470  16.401   6.363  0.0694 -0.0983 -0.1913
    1CHOL    R131562  14.414  16.422   6.086  0.1226  0.0789 -0.1880
    1CHOL    R231563  14.594  16.531   5.906  0.2840 -0.0973 -0.1236
    1CHOL    R331564  14.558  16.294   5.777 -0.0226 -0.0019 -0.2262
    1CHOL    R431565  14.630  16.484   5.566  0.5562 -0.0450 -0.1053
    1CHOL    R531566  14.455  16.355   5.570  0.2961  0.2673 -0.3237
    1CHOL    C131567  14.617  16.235   5.246  0.4269  0.0749 -0.1910
    1CHOL    C231568  14.590  16.082   4.843  0.0593 -0.0453  0.1709
    1CHOL   ROH31569  14.903  17.399   2.743 -0.0064 -0.0245  0.0421
    1CHOL    R131570  14.841  17.491   3.003 -0.0596  0.0669 -0.0036
    1CHOL    R231571  14.583  17.495   3.101 -0.0639  0.0095 -0.0250
    1CHOL    R331572  14.692  17.352   3.305 -0.0245  0.1453  0.0518
    1CHOL    R431573  14.426  17.428   3.402 -0.1986 -0.1749 -0.1337
    1CHOL    R531574  14.616  17.463   3.503 -0.3029  0.0625 -0.0000
    1CHOL    C131575  14.437  17.254   3.768 -0.2402 -0.1549 -0.1250
    1CHOL    C231576  14.478  17.499   4.053 -0.2843  0.1182 -0.0183
    1CHOL   ROH31577  12.416  17.663   6.413 -0.1402 -0.1371  0.0629
    1CHOL    R131578  12.318  17.689   6.148 -0.0389 -0.0154  0.0372
    1CHOL    R231579  12.440  17.851   5.960  0.1017 -0.0208  0.1250
    1CHOL    R331580  12.443  17.623   5.813  0.0413  0.0198  0.0592
    1CHOL    R431581  12.502  17.837   5.621  0.1700  0.0550  0.1337
    1CHOL    R531582  12.345  17.687   5.603  0.1114  0.1224  0.0556
    1CHOL    C131583  12.542  17.615   5.284  0.1532  0.1376  0.0771
    1CHOL    C231584  12.685  17.481   5.008 -0.1362 -0.2188 -0.4480
    1CHOL   ROH31585   8.618  10.814   3.990  0.1250 -0.2070  0.0365
    1CHOL    R131586   8.723  10.738   4.242  0.0928 -0.0237  0.1071
    1CHOL    R231587   8.872  10.910   4.400 -0.0037  0.1214  0.0443
    1CHOL    R331588   8.686  10.848   4.587 -0.0269  0.1660  0.0355
    1CHOL    R431589   8.922  10.926   4.741  0.0002  0.0606  0.0463
    1CHOL    R531590   8.810  10.741   4.761 -0.0670  0.0993  0.0227
    1CHOL    C131591   8.776  10.876   5.116 -0.0194  0.0669  0.0392
    1CHOL    C231592   9.045  11.165   5.187  0.0099  0.1977 -0.0925
    1CHOL   ROH31593  29.825  14.819   5.028 -0.0215  0.0682 -0.1534
    1CHOL    R131594  29.897  14.638   4.822 -0.1132 -0.0006 -0.1260
    1CHOL    R231595  29.717  14.550   4.632 -0.1534  0.0806 -0.1270
    1CHOL    R331596  29.904  14.642   4.458 -0.0871 -0.0504 -0.1259
    1CHOL    R431597  29.703  14.512   4.289 -0.1575  0.0557 -0.1240
    1CHOL    R531598  29.917  14.472   4.289 -0.1813 -0.0751 -0.1086
    1CHOL    C131599  29.870  14.577   3.926 -0.0976 -0.0818 -0.1211
    1CHOL    C231600  29.735  14.537   3.550 -0.2353 -0.2872 -0.2322
    1CHOL   ROH31601  18.549  17.110   6.088  0.0252  0.2691  0.0965
    1CHOL    R131602  18.421  17.177   5.844  0.0286 -0.0179  0.0138
    1CHOL    R231603  18.477  17.410   5.706 -0.2589  0.0096 -0.0502
    1CHOL    R331604  18.524  17.239   5.501  0.0846 -0.0023  0.0316
    1CHOL    R431605  18.461  17.494   5.371  0.0362 -0.0641 -0.0859
    1CHOL    R531606  18.366  17.302   5.332  0.2110 -0.1461 -0.1510
    1CHOL    C131607  18.497  17.381   4.983  0.5306 -0.1184 -0.0298
    1CHOL    C231608  18.405  17.553   4.655 -0.1971 -0.1609  0.6846
    1CHOL   ROH31609  10.728  22.558   3.043 -0.2407 -0.0269  0.1079
    1CHOL    R131610  10.734  22.453   3.306 -0.0993 -0.0010  0.1164
    1CHOL    R231611  10.662  22.603   3.527 -0.2541 -0.0636  0.1107
    1CHOL    R331612  10.493  22.395   3.572 -0.0138 -0.2569  0.1402
    1CHOL    R431613  10.638  22.429   3.825 -0.0414 -0.0570  0.1324
    1CHOL    R531614  10.619  22.245   3.710  0.1678 -0.0960  0.1543
    1CHOL    C131615  10.466  22.133   4.041  0.3079 -0.2348  0.1728
    1CHOL    C231616  10.235  22.307   4.403 -0.1882 -0.0944 -0.1131
    1CHOL   ROH31617  13.386   9.132   3.623  0.0763  0.0302 -0.1031
    1CHOL    R131618  13.510   9.238   3.854  0.0049  0.0287 -0.0638
    1CHOL    R231619  13.497   9.506   3.919 -0.1411  0.0043  0.0137
    1CHOL    R331620  13.403   9.411   4.156 -0.1073 -0.1157 -0.0207
    1CHOL    R431621  13.542   9.659   4.226 -0.0636 -0.1756  0.0932
    1CHOL    R531622  13.575   9.462   4.314 -0.0721 -0.2278 -0.0239
    1CHOL    C131623  13.480   9.658   4.627  0.0131 -0.3930  0.1071
    1CHOL    C231624  13.622   9.806   4.997  0.1148 -0.0735  0.2223
    1CHOL   ROH31625  20.615  17.833   6.200 -0.1450 -0.1343  0.0889
    1CHOL    R131626  20.639  17.801   5.920 -0.1353  0.0827  0.0652
    1CHOL    R231627  20.578  17.564   5.791 -0.0354  0.1579 -0.1036
    1CHOL    R331628  20.416  17.724   5.642 -0.1036  0.1942  0.0044
    1CHOL    R431629  20.439  17.476   5.487 -0.0636  0.2577 -0.1218
    1CHOL    R531630  20.480  17.678   5.416 -0.1240  0.3123 -0.0339
    1CHOL    C131631  20.207  17.575   5.170 -0.1441  0.3497 -0.0309
    1CHOL    C231632  20.325  17.542   4.861 -0.0391 -0.1776 -0.4512
    1CHOL   ROH31633   3.832   4.950   5.212  0.2540  0.0810  0.2538
    1CHOL    R131634   3.963   4.699   5.218  0.1918  0.0432  0.0536
    1CHOL    R231635   3.829   4.461   5.264  0.1441  0.0503 -0.0809
    1CHOL    R331636   3.947   4.387   5.031  0.0760  0.1712 -0.1561
    1CHOL    R431637   3.860   4.136   5.153  0.2769  0.0876 -0.1595
    1CHOL    R531638   4.060   4.184   5.084  0.2222  0.2219 -0.2484
    1CHOL    C131639   3.988   3.877   4.869  0.2904  0.2228 -0.2759
    1CHOL    C231640   3.995   3.560   4.871  0.0999 -0.1134  0.1302
    1CHOL   ROH31641   7.852   7.922   4.441  0.1609  0.1526  0.1919
    1CHOL    R131642   7.629   7.759   4.506  0.0997  0.2432  0.2102
    1CHOL    R231643   7.587   7.512   4.391 -0.0820  0.3172  0.1141
    1CHOL    R331644   7.576   7.429   4.649 -0.0180  0.2060  0.0821
    1CHOL    R431645   7.487   7.197   4.494 -0.1229  0.2956  0.0102
    1CHOL    R531646   7.381   7.291   4.659 -0.0470  0.2481  0.0852
    1CHOL    C131647   7.418   6.937   4.796 -0.0865  0.1787 -0.0803
    1CHOL    C231648   7.455   6.686   5.051 -0.4437  0.1841 -0.0085
    1CHOL   ROH31649  14.375  18.309   2.927  0.0033 -0.0386 -0.0087
    1CHOL    R131650  14.405  18.450   3.170  0.0628 -0.0277 -0.0221
    1CHOL    R231651  14.266  18.383   3.400  0.0700  0.0229 -0.0033
    1CHOL    R331652  14.515  18.375   3.509  0.0793 -0.0293 -0.0277
    1CHOL    R431653  14.334  18.397   3.738  0.1053  0.0126 -0.0097
    1CHOL    R531654  14.504  18.527   3.694  0.1294 -0.0239 -0.0281
    1CHOL    C131655  14.606  18.398   4.038  0.1346 -0.0425 -0.0364
    1CHOL    C231656  14.681  18.071   4.299 -0.2554  0.0554  0.1534
    1CHOL   ROH31657  17.875  10.760   5.988  0.2155 -0.0771 -0.0276
    1CHOL    R131658  17.995  10.747   5.732  0.1409 -0.0926 -0.0623
    1CHOL    R231659  17.902  10.580   5.533  0.0516 -0.0690 -0.0428
    1CHOL    R331660  17.893  10.811   5.389  0.0557 -0.0619 -0.0310
    1CHOL    R431661  17.917  10.599   5.188 -0.0172 -0.0538 -0.0450
    1CHOL    R531662  18.045  10.774   5.208  0.0116 -0.0747 -0.0641
    1CHOL    C131663  17.917  10.826   4.852 -0.0534 -0.0383 -0.0352
    1CHOL    C231664  18.207  10.636   4.683  0.2755 -0.0817 -0.1852
    1CHOL   ROH31665  19.294  19.250   2.670  0.1769  0.0373  0.0023
    1CHOL    R131666  19.148  19.223   2.911  0.1513  0.0077 -0.0160
    1CHOL    R231667  19.238  19.072   3.124  0.1033 -0.0627 -0.0440
    1CHOL    R331668  19.200  19.303   3.262  0.1386 -0.0886  0.0078
    1CHOL    R431669  19.180  19.091   3.464 -0.0463 -0.1409 -0.0647
    1CHOL    R531670  19.034  19.248   3.425  0.0392 -0.0665 -0.0860
    1CHOL    C131671  19.111  19.318   3.792 -0.1004 -0.2104 -0.0281
    1CHOL    C231672  19.107  19.205   4.212  0.0649  0.0448 -0.2006
    1CHOL   ROH31673   9.250  19.870   2.768  0.2073  0.0553 -0.1642
    1CHOL    R131674   9.180  19.941   3.033  0.0155 -0.1245 -0.1634
    1CHOL    R231675   9.326  19.857   3.252  0.0364 -0.0249 -0.1352
    1CHOL    R331676   9.335  20.123   3.307 -0.3131 -0.0298 -0.0379
    1CHOL    R431677   9.385  19.992   3.565  0.1160 -0.0596 -0.1352
    1CHOL    R531678   9.232  20.142   3.523 -0.1494 -0.2688  0.0622
    1CHOL    C131679   9.426  20.320   3.799 -0.1658 -0.0842 -0.0439
    1CHOL    C231680   9.317  20.596   4.171  0.0497 -0.1623  0.0807
    1CHOL   ROH31681  24.850   3.540   5.905 -0.1086  0.1072  0.0223
    1CHOL    R131682  24.717   3.507   5.657 -0.1026  0.0458  0.0259
    1CHOL    R231683  24.532   3.689   5.562 -0.0574  0.0578 -0.0550
    1CHOL    R331684  24.693   3.691   5.344 -0.0395 -0.0635 -0.0422
    1CHOL    R431685  24.460   3.851   5.265  0.0493  0.0277 -0.0964
    1CHOL    R531686  24.542   3.680   5.158 -0.0243 -0.0299 -0.0522
    1CHOL    C131687  24.570   3.947   4.887  0.1282 -0.1036 -0.1084
    1CHOL    C231688  24.719   3.885   4.606  0.3396 -0.1504  0.0182
    1CHOL   ROH31689  12.455  16.773   6.280 -0.0211 -0.1547  0.0799
    1CHOL    R131690  12.552  16.710   6.022  0.0460 -0.0070  0.0671
    1CHOL    R231691  12.427  16.528   5.856  0.2372 -0.1178  0.0330
    1CHOL    R331692  12.430  16.735   5.680  0.0126 -0.0785  0.0751
    1CHOL    R431693  12.430  16.496   5.512  0.2910 -0.0387  0.0269
    1CHOL    R531694  12.572  16.661   5.502  0.1037  0.1208  0.0667
    1CHOL    C131695  12.434  16.672   5.147  0.1117  0.0441  0.0628
    1CHOL    C231696  12.329  16.642   4.786 -0.0195  0.1532 -0.1084
    1CHOL   ROH31697   9.263  14.479   3.133 -0.1229 -0.1590  0.0537
    1CHOL    R131698   9.237  14.639   3.365  0.0457 -0.0925  0.0272
    1CHOL    R231699   9.018  14.625   3.532  0.0911  0.0769  0.0973
    1CHOL    R331700   9.206  14.581   3.723  0.1222  0.0078  0.0518
    1CHOL    R431701   8.975  14.690   3.869  0.1297 -0.0521  0.1274
    1CHOL    R531702   9.179  14.765   3.875  0.1335 -0.0462  0.1258
    1CHOL    C131703   9.126  14.686   4.245  0.1813 -0.1919  0.1022
    1CHOL    C231704   8.970  14.434   4.600  0.2777 -0.1426  0.1356
    1CHOL   ROH31705  15.663  16.583   6.192 -0.1490  0.0957  0.2510
    1CHOL    R131706  15.678  16.514   5.918 -0.0219  0.1388  0.2478
    1CHOL    R231707  15.458  16.524   5.749  0.0316  0.0444  0.1811
    1CHOL    R331708  15.621  16.681   5.599 -0.0037  0.1481  0.2478
    1CHOL    R431709  15.420  16.583   5.411 -0.1136  0.3497  0.2463
    1CHOL    R531710  15.636  16.569   5.389 -0.1208  0.3262  0.1374
    1CHOL    C131711  15.551  16.766   5.073 -0.2314  0.6249  0.3470
    1CHOL    C231712  15.548  16.747   4.659  0.2697 -0.0915 -0.2425
    1CHOL   ROH31713   4.458   0.327   5.851 -0.0913 -0.1630 -0.1676
    1CHOL    R131714   4.338   0.348   5.595 -0.2771 -0.1303 -0.0782
    1CHOL    R231715   4.127   0.518   5.545 -0.1034  0.1134  0.0240
    1CHOL    R331716   4.289   0.610   5.347 -0.1517 -0.1817 -0.1611
    1CHOL    R431717   4.032   0.746   5.302  0.0296  0.3288  0.1704
    1CHOL    R531718   4.145   0.629   5.156 -0.3626  0.1134  0.0116
    1CHOL    C131719   4.130   0.965   4.976  0.0618  0.1772  0.0819
    1CHOL    C231720   3.917   0.946   4.484  0.0998  0.0031  0.0088
    1CHOL   ROH31721  15.881  24.243   6.098  0.2511  0.0277  0.0286
    1CHOL    R131722  15.839  24.381   5.855  0.0739  0.0651  0.0781
    1CHOL    R231723  16.025  24.554   5.748 -0.0545  0.1857  0.0306
    1CHOL    R331724  15.998  24.396   5.528 -0.0766  0.2175  0.0121
    1CHOL    R431725  16.150  24.629   5.434  0.0916  0.1205  0.0733
    1CHOL    R531726  15.966  24.550   5.348  0.0782  0.2401  0.0093
    1CHOL    C131727  16.197  24.524   5.045  0.1560  0.1124  0.0808
    1CHOL    C231728  16.380  24.765   4.796 -0.0481  0.0492  0.0264
    1CHOL   ROH31729  15.938  11.361   2.829  0.4242  0.0579 -0.0558
    1CHOL    R131730  15.940  11.297   3.105  0.0639  0.0638 -0.0484
    1CHOL    R231731  16.173  11.282   3.252 -0.1159 -0.1099  0.2129
    1CHOL    R331732  16.044  11.459   3.414 -0.1605 -0.0099  0.0714
    1CHOL    R431733  16.235  11.323   3.590 -0.1865  0.0918  0.2035
    1CHOL    R531734  16.020  11.343   3.622 -0.2040  0.1077  0.1402
    1CHOL    C131735  16.150  11.513   3.938 -0.2697  0.3031  0.0651
    1CHOL    C231736  16.394  11.562   4.232 -0.0160  0.1736 -0.1189
    1CHOL   ROH31737  14.723  12.419   3.335 -0.2991 -0.0897  0.0964
    1CHOL    R131738  14.716  12.354   3.610 -0.1462  0.0380  0.1315
    1CHOL    R231739  14.945  12.326   3.763 -0.0670  0.2135  0.0395
    1CHOL    R331740  14.823  12.509   3.921 -0.0754  0.2333  0.0140
    1CHOL    R431741  14.987  12.351   4.105 -0.0350  0.2749  0.0315
    1CHOL    R531742  14.774  12.390   4.123 -0.0455  0.2574  0.0416
    1CHOL    C131743  14.896  12.538   4.453 -0.0243  0.3293  0.0029
    1CHOL    C231744  14.707  12.654   4.632  0.1888 -0.2000 -0.3388
    1CHOL   ROH31745   6.793   9.171   6.879 -0.0669 -0.0899  0.0314
    1CHOL    R131746   6.828   9.331   6.648 -0.1321 -0.0383  0.0573
    1CHOL    R231747   7.056   9.481   6.603 -0.1796  0.0348  0.0654
    1CHOL    R331748   7.061   9.345   6.368 -0.1593  0.0796  0.0393
    1CHOL    R431749   7.120   9.622   6.294 -0.0974  0.0862  0.1052
    1CHOL    R531750   6.964   9.496   6.210 -0.1045  0.1286  0.0509
    1CHOL    C131751   7.161   9.576   5.894 -0.0305  0.1581  0.1040
    1CHOL    C231752   7.014   9.939   5.882  0.2570  0.3389 -0.3820
    1CHOL   ROH31753  13.847  20.422   6.299  0.1930 -0.0414  0.1843
    1CHOL    R131754  13.975  20.399   6.047  0.0864 -0.0821  0.1329
    1CHOL    R231755  14.016  20.155   5.922 -0.1162 -0.0898  0.0755
    1CHOL    R331756  13.887  20.277   5.716 -0.1155  0.0293  0.1448
    1CHOL    R431757  14.038  20.061   5.590 -0.2326  0.0148  0.0372
    1CHOL    R531758  14.043  20.271   5.535 -0.1625  0.0287  0.1065
    1CHOL    C131759  13.930  20.120   5.204 -0.3000  0.1875  0.0801
    1CHOL    C231760  13.941  19.969   4.927  0.3745 -0.1019  0.0785
    1CHOL   ROH31761   9.967   8.187   3.904  0.2897  0.0490  0.0111
    1CHOL    R131762   9.894   8.158   4.176  0.0579  0.2663 -0.0243
    1CHOL    R231763  10.002   7.963   4.339 -0.3903  0.1214  0.1140
    1CHOL    R331764  10.062   8.176   4.498 -0.1168  0.0731  0.0799
    1CHOL    R431765  10.077   7.943   4.676 -0.2925  0.0657  0.0893
    1CHOL    R531766   9.959   8.124   4.708 -0.0982  0.1910  0.1199
    1CHOL    C131767  10.176   8.130   5.022  0.0213 -0.0120  0.0428
    1CHOL    C231768  10.240   7.992   5.358  0.2428  0.0393  0.0781
    1CHOL   ROH31769  15.910  21.563   3.736 -0.0760 -0.0580  0.0501
    1CHOL    R131770  15.993  21.532   4.005 -0.0337 -0.1032  0.0325
    1CHOL    R231771  15.856  21.643   4.217  0.0711 -0.0275  0.0656
    1CHOL    R331772  15.856  21.387   4.309 -0.0477 -0.0290  0.0609
    1CHOL    R431773  15.868  21.553   4.551  0.2562 -0.0434  0.0546
    1CHOL    R531774  16.005  21.391   4.497  0.0967 -0.1424 -0.0509
    1CHOL    C131775  15.876  21.260   4.831  0.2522 -0.0541  0.0437
    1CHOL    C231776  16.093  21.102   5.061 -0.4319  0.1831 -0.1674
    1CHOL   ROH31777  11.199  10.412   3.840 -0.0306 -0.0596  0.0508
    1CHOL    R131778  11.202  10.466   4.118  0.0092 -0.0136  0.0408
    1CHOL    R231779  11.435  10.478   4.265  0.0278  0.0109  0.0035
    1CHOL    R331780  11.341  10.723   4.335  0.0391  0.0227 -0.0193
    1CHOL    R431781  11.452  10.611   4.583  0.2075  0.1129 -0.0468
    1CHOL    R531782  11.251  10.691   4.555  0.1764  0.0787  0.0492
    1CHOL    C131783  11.373  10.919   4.835  0.3226  0.1834 -0.0975
    1CHOL    C231784  11.602  10.892   5.106  0.2068  0.1151  0.0373
    1CHOL   ROH31785   3.675   4.428   3.737  0.1539 -0.0264 -0.0896
    1CHOL    R131786   3.844   4.206   3.783  0.0843 -0.0891 -0.1301
    1CHOL    R231787   4.116   4.212   3.731  0.0896 -0.1684 -0.1371
    1CHOL    R331788   4.134   4.132   3.991  0.0659 -0.2124 -0.1497
    1CHOL    R431789   4.373   4.022   3.864  0.0357 -0.2521 -0.1529
    1CHOL    R531790   4.226   3.912   3.980  0.0100 -0.2305 -0.1751
    1CHOL    C131791   4.539   3.838   4.185 -0.0179 -0.3421 -0.1740
    1CHOL    C231792   4.875   3.905   4.399 -0.1507 -0.0488 -0.1911
    1CHOL   ROH31793  13.478  14.509   6.444 -0.0431 -0.0349  0.0592
    1CHOL    R131794  13.467  14.390   6.187 -0.1204 -0.0041  0.0465
    1CHOL    R231795  13.246  14.411   6.023 -0.1078  0.1677  0.0379
    1CHOL    R331796  13.427  14.505   5.844 -0.0316  0.0610  0.0599
    1CHOL    R431797  13.206  14.405   5.680 -0.0596  0.2026  0.0325
    1CHOL    R531798  13.416  14.350   5.661 -0.0971  0.0786  0.0563
    1CHOL    C131799  13.354  14.490   5.312  0.0399  0.1226  0.0500
    1CHOL    C231800  13.218  14.336   5.018 -0.0493 -0.0458 -0.2425
    1CHOL   ROH31801  16.732  12.630   6.462 -0.3112  0.0608  0.2503
    1CHOL    R131802  16.648  12.794   6.247 -0.1040  0.0916  0.1916
    1CHOL    R231803  16.778  12.797   6.003 -0.0945 -0.1580  0.1940
    1CHOL    R331804  16.529  12.742   5.907 -0.1646  0.1198  0.2078
    1CHOL    R431805  16.680  12.837   5.674  0.0033 -0.2593  0.1511
    1CHOL    R531806  16.489  12.914   5.745  0.0978  0.0643  0.0756
    1CHOL    C131807  16.390  12.810   5.392 -0.0055 -0.0576  0.1391
    1CHOL    C231808  16.490  12.788   5.114 -0.1159  0.4034  0.0918
    1CHOL   ROH31809  12.117  14.539   6.318  0.0458 -0.0661  0.1029
    1CHOL    R131810  12.063  14.606   6.049  0.0338  0.0079  0.1235
    1CHOL    R231811  12.229  14.531   5.841  0.0006  0.0262  0.0906
    1CHOL    R331812  12.000  14.425   5.739 -0.0281  0.0930  0.0856
    1CHOL    R431813  12.197  14.399   5.523  0.0009 -0.0598  0.1265
    1CHOL    R531814  12.000  14.492   5.509  0.0422  0.0216  0.0634
    1CHOL    C131815  11.963  14.222   5.243 -0.0262 -0.0472  0.1425
    1CHOL    C231816  11.980  14.242   4.851  0.0939 -0.4348  0.0115
    1CHOL   ROH31817  22.311  29.696   3.475  0.0926  0.0275  0.0140
    1CHOL    R131818  22.395  29.492   3.652  0.0488  0.0004  0.0038
    1CHOL    R231819  22.660  29.421   3.684  0.0316 -0.0851 -0.0290
    1CHOL    R331820  22.608  29.468   3.946  0.0775 -0.0665 -0.0229
    1CHOL    R431821  22.836  29.284   3.948  0.0097 -0.1459 -0.0456
    1CHOL    R531822  22.647  29.257   4.053  0.0134 -0.0785 -0.0256
    1CHOL    C131823  22.888  29.248   4.348  0.0400 -0.1638 -0.0495
    1CHOL    C231824  23.240  29.332   4.496  0.1756  0.3465 -0.2648
    1CHOL   ROH31825  21.417  14.347   5.740  0.0356  0.1039  0.0366
    1CHOL    R131826  21.579  14.448   5.532 -0.0468  0.1410 -0.0095
    1CHOL    R231827  21.593  14.328   5.283  0.0180  0.0625  0.0329
    1CHOL    R331828  21.527  14.577   5.195 -0.1567 -0.0123 -0.0531
    1CHOL    R431829  21.622  14.436   4.956  0.2168  0.0535  0.0463
    1CHOL    R531830  21.694  14.628   5.031 -0.0493  0.1392  0.0976
    1CHOL    C131831  21.577  14.733   4.683  0.1686 -0.0221 -0.0267
    1CHOL    C231832  21.363  14.727   4.312  0.0104  0.0356  0.1314
    1CHOL   ROH31833  21.098   3.714   5.937 -0.3539  0.0448  0.1636
    1CHOL    R131834  21.155   3.540   5.721 -0.1899  0.0250  0.2213
    1CHOL    R231835  21.208   3.271   5.757 -0.2744  0.0148  0.2818
    1CHOL    R331836  21.007   3.240   5.577 -0.1179  0.0483  0.0983
    1CHOL    R431837  21.079   2.967   5.657 -0.3521  0.0423  0.2989
    1CHOL    R531838  21.068   3.044   5.453 -0.1081 -0.0458  0.2497
    1CHOL    C131839  20.815   2.760   5.429 -0.2505  0.0898  0.1366
    1CHOL    C231840  21.017   2.452   5.528  0.1060 -0.0126 -0.1209
    1CHOL   ROH31841  16.451  15.853   6.078  0.0211 -0.0016  0.1609
    1CHOL    R131842  16.446  15.755   5.812 -0.0682 -0.0074  0.1654
    1CHOL    R231843  16.271  15.850   5.622 -0.0046  0.1179  0.1747
    1CHOL    R331844  16.499  15.890   5.479  0.0171 -0.0610  0.1555
    1CHOL    R431845  16.299  15.808   5.280 -0.1219  0.2615  0.1456
    1CHOL    R531846  16.495  15.717   5.312 -0.2101  0.0228  0.0651
    1CHOL    C131847  16.529  15.820   4.946 -0.1701  0.1772  0.1106
    1CHOL    C231848  16.611  15.853   4.490  0.1575  0.1402 -0.0474
    1CHOL   ROH31849  21.231  16.535   5.614  0.1138  0.0264  0.0379
    1CHOL    R131850  21.369  16.499   5.370  0.0523  0.1200 -0.0116
    1CHOL    R231851  21.269  16.346   5.163  0.0608  0.0889  0.0073
    1CHOL    R331852  21.310  16.572   5.019 -0.1007  0.1242  0.0144
    1CHOL    R431853  21.240  16.369   4.820  0.0729  0.0706  0.0051
    1CHOL    R531854  21.417  16.496   4.818 -0.0237  0.2078  0.0226
    1CHOL    C131855  21.262  16.595   4.484 -0.0717  0.0929  0.0105
    1CHOL    C231856  21.117  16.787   4.176  0.1263  0.0809  0.0570
    1CHOL   ROH31857  16.263  23.045   6.011  0.0799  0.0594 -0.1956
    1CHOL    R131858  16.391  23.115   5.768  0.0326 -0.0273 -0.2455
    1CHOL    R231859  16.665  23.132   5.744  0.0237  0.0451 -0.2831
    1CHOL    R331860  16.626  22.958   5.538  0.0568 -0.0738 -0.1898
    1CHOL    R431861  16.875  23.098   5.471  0.0195 -0.0437 -0.2755
    1CHOL    R531862  16.699  23.078   5.344  0.0166 -0.1555 -0.2572
    1CHOL    C131863  16.961  22.915   5.120  0.0481 -0.2069 -0.1836
    1CHOL    C231864  17.150  22.862   4.783 -0.0668  0.0095 -0.4034
    1CHOL   ROH31865   6.470  17.539   3.024  0.0603  0.2070 -0.0358
    1CHOL    R131866   6.312  17.466   3.247  0.0892  0.0920 -0.0519
    1CHOL    R231867   6.060  17.569   3.292  0.1086  0.1030  0.0575
    1CHOL    R331868   5.989  17.307   3.302  0.0764  0.1053 -0.0954
    1CHOL    R431869   5.775  17.448   3.444  0.1600  0.0301  0.0954
    1CHOL    R531870   5.893  17.280   3.520  0.1674 -0.0374 -0.0743
    1CHOL    C131871   5.542  17.131   3.543  0.1596 -0.0098 -0.0261
    1CHOL    C231872   5.266  17.116   3.867 -0.0616 -0.3205  0.1306
    1CHOL   ROH31873   1.829  14.239   5.128 -0.0921 -0.2176 -0.0566
    1CHOL    R131874   2.059  14.116   5.018 -0.0164 -0.1073 -0.0227
    1CHOL    R231875   2.053  13.977   4.779  0.1084 -0.0206 -0.0747
    1CHOL    R331876   2.255  14.147   4.713  0.0818  0.0635  0.0558
    1CHOL    R431877   2.307  13.906   4.555  0.2450  0.1056  0.0381
    1CHOL    R531878   2.446  14.006   4.689  0.1446  0.1332  0.1271
    1CHOL    C131879   2.644  14.025   4.363  0.2996  0.2579  0.2262
    1CHOL    C231880   2.899  13.975   4.059 -0.1812 -0.3647 -0.4005
    1CHOL   ROH31881  13.742  18.947   6.489  0.1331 -0.1101  0.0158
    1CHOL    R131882  13.591  19.047   6.272  0.0977 -0.1534  0.0206
    1CHOL    R231883  13.601  19.311   6.193 -0.0403 -0.1348  0.0695
    1CHOL    R331884  13.662  19.203   5.951  0.0397 -0.0567  0.0543
    1CHOL    R431885  13.570  19.476   5.891 -0.3093 -0.1605  0.0799
    1CHOL    R531886  13.494  19.291   5.803 -0.1038 -0.2556  0.0929
    1CHOL    C131887  13.610  19.471   5.487 -0.3909 -0.1022  0.0716
    1CHOL    C231888  13.795  19.626   5.239  0.0218 -0.0668  0.0983
    1CHOL   ROH31889  19.188   4.607   4.224  0.0230  0.0849 -0.0184
    1CHOL    R131890  19.164   4.590   4.506  0.0297 -0.0815 -0.0267
    1CHOL    R231891  18.960   4.713   4.646  0.0976 -0.0680  0.0618
    1CHOL    R331892  18.919   4.463   4.743 -0.0208 -0.1113 -0.0946
    1CHOL    R431893  18.872   4.640   4.972 -0.1318 -0.2215 -0.0318
    1CHOL    R531894  19.008   4.470   4.965 -0.1643 -0.2470 -0.0310
    1CHOL    C131895  18.782   4.362   5.253 -0.3767 -0.3513 -0.2332
    1CHOL    C231896  18.988   4.525   5.584 -0.1348 -0.4813  0.1837
    1CHOL   ROH31897  17.492  17.664   2.537  0.1698  0.1573  0.0606
    1CHOL    R131898  17.504  17.473   2.745 -0.0611  0.1028  0.0267
    1CHOL    R231899  17.738  17.416   2.881 -0.1072 -0.2643 -0.0401
    1CHOL    R331900  17.587  17.473   3.099  0.0282 -0.0744  0.0076
    1CHOL    R431901  17.831  17.354   3.208 -0.1295 -0.5006 -0.0766
    1CHOL    R531902  17.627  17.290   3.249 -0.2295 -0.1844 -0.0492
    1CHOL    C131903  17.743  17.371   3.603 -0.0151 -0.4599 -0.0531
    1CHOL    C231904  17.672  17.235   4.060 -0.2233 -0.2632  0.0502
    1CHOL   ROH31905  20.166  12.512   2.421  0.0962  0.0342  0.1401
    1CHOL    R131906  20.326  12.505   2.654  0.0982 -0.0112  0.1371
    1CHOL    R231907  20.320  12.705   2.845  0.1635 -0.0070  0.1319
    1CHOL    R331908  20.270  12.498   3.014  0.1039  0.0129  0.1391
    1CHOL    R431909  20.312  12.729   3.189  0.2796 -0.0105  0.1356
    1CHOL    R531910  20.414  12.537   3.200  0.1827 -0.0679  0.0978
    1CHOL    C131911  20.259  12.549   3.549  0.2912  0.0060  0.1445
    1CHOL    C231912  20.267  12.664   3.934  0.2076  0.1783 -0.0633
    1CHOL   ROH31913  19.918  23.067   3.288  0.0948 -0.0940 -0.2536
    1CHOL    R131914  20.045  22.883   3.462  0.0511 -0.0484 -0.1740
    1CHOL    R231915  19.938  22.812   3.707  0.0001  0.0309 -0.1739
    1CHOL    R331916  19.965  22.560   3.609  0.0066 -0.0009 -0.0920
    1CHOL    R431917  19.899  22.522   3.891 -0.0114  0.0888 -0.0837
    1CHOL    R531918  20.069  22.437   3.786 -0.0045  0.0551 -0.0461
    1CHOL    C131919  19.902  22.116   3.906 -0.0125  0.0927  0.0456
    1CHOL    C231920  20.211  21.818   4.026  0.0378  0.1188  0.1226
    1CHOL   ROH31921  16.574  15.316   2.551  0.0738  0.0869  0.1123
    1CHOL    R131922  16.432  15.322   2.796  0.0487 -0.1376  0.1064
    1CHOL    R231923  16.471  15.135   2.995  0.2363 -0.1585  0.0548
    1CHOL    R331924  16.515  15.356   3.148 -0.0078 -0.1532  0.1206
    1CHOL    R431925  16.518  15.131   3.338  0.0889 -0.1861  0.0749
    1CHOL    R531926  16.396  15.311   3.351 -0.0612 -0.2879  0.0589
    1CHOL    C131927  16.586  15.336   3.681 -0.2262 -0.1973  0.1485
    1CHOL    C231928  16.692  15.116   3.974  0.0613 -0.0233 -0.1396
    1CHOL   ROH31929   8.381   3.827   3.746 -0.0593  0.3030 -0.1067
    1CHOL    R131930   8.322   3.992   3.968  0.0045  0.1299  0.0400
    1CHOL    R231931   8.148   3.915   4.169  0.0209 -0.0027 -0.0028
    1CHOL    R331932   8.359   3.972   4.330  0.0511 -0.1755  0.0225
    1CHOL    R431933   8.124   3.990   4.505 -0.0010  0.3159 -0.0709
    1CHOL    R531934   8.277   4.143   4.477  0.2399  0.0754 -0.1498
    1CHOL    C131935   8.309   4.087   4.853  0.0144  0.3392 -0.0868
    1CHOL    C231936   8.140   4.015   5.270  0.2422  0.0064  0.0206
    1CHOL   ROH31937  11.600  16.109   2.992  0.1149  0.2722  0.1501
    1CHOL    R131938  11.505  15.975   3.223  0.1704  0.2046  0.1328
    1CHOL    R231939  11.645  15.971   3.461  0.1042  0.3535  0.1711
    1CHOL    R331940  11.411  16.066   3.562 -0.0143  0.1467  0.0991
    1CHOL    R431941  11.561  15.971   3.796  0.0587  0.3969  0.1606
    1CHOL    R531942  11.358  15.915   3.740  0.1226  0.1570  0.1526
    1CHOL    C131943  11.292  16.060   4.086 -0.0791  0.2282  0.0869
    1CHOL    C231944  11.452  16.160   4.511 -0.1026  0.0603 -0.1319
    1CHOL   ROH31945  16.215  18.928   6.356  0.0289 -0.0859  0.0450
    1CHOL    R131946  16.106  18.990   6.102  0.0195 -0.0695  0.0539
    1CHOL    R231947  16.218  19.178   5.933  0.0094 -0.0592  0.0661
    1CHOL    R331948  16.216  18.973   5.756  0.0046 -0.0431  0.0463
    1CHOL    R431949  16.233  19.213   5.590  0.2004 -0.0243  0.0761
    1CHOL    R531950  16.086  19.054   5.572  0.1312  0.0406 -0.0131
    1CHOL    C131951  16.239  19.039   5.223  0.3069  0.0109  0.0633
    1CHOL    C231952  16.275  18.924   4.815 -0.0611  0.3987 -0.0323
    1CHOL   ROH31953   4.610  29.183   4.599  0.0817  0.0408 -0.0587
    1CHOL    R131954   4.611  28.914   4.686  0.1171  0.0638  0.0090
    1CHOL    R231955   4.804  28.732   4.607  0.0987  0.0553  0.0006
    1CHOL    R331956   4.836  28.698   4.875  0.1778  0.1175  0.0010
    1CHOL    R431957   4.825  28.426   4.766  0.0264  0.0861  0.0726
    1CHOL    R531958   4.702  28.506   4.927  0.1122  0.1839  0.0974
    1CHOL    C131959   4.868  28.216   5.110  0.0586  0.1625  0.1149
    1CHOL    C231960   4.992  28.022   5.385  0.0056  0.0792  0.1098
    1CHOL   ROH31961  14.842  13.403   6.468 -0.0030 -0.1663  0.0611
    1CHOL    R131962  14.875  13.391   6.187  0.0145  0.0994  0.0513
    1CHOL    R231963  14.772  13.186   6.033  0.2845  0.0895 -0.1047
    1CHOL    R331964  14.658  13.390   5.895  0.0186  0.0490  0.0442
    1CHOL    R431965  14.685  13.174   5.699 -0.1156  0.0488 -0.0062
    1CHOL    R531966  14.758  13.378   5.677 -0.2285  0.0957 -0.0869
    1CHOL    C131967  14.528  13.358   5.374 -0.5983 -0.0129  0.1910
    1CHOL    C231968  14.572  13.302   5.023 -0.1143 -0.1948  0.0171
    1CHOL   ROH31969  12.694  19.654   6.445  0.0412  0.2419 -0.1869
    1CHOL    R131970  12.588  19.670   6.183 -0.0009 -0.0994 -0.1948
    1CHOL    R231971  12.703  19.825   5.985 -0.2464 -0.0545 -0.3064
    1CHOL    R331972  12.702  19.591   5.847  0.1034 -0.1579 -0.1456
    1CHOL    R431973  12.687  19.798   5.641 -0.2439 -0.3242 -0.2879
    1CHOL    R531974  12.552  19.629   5.665  0.0206 -0.5216 -0.1590
    1CHOL    C131975  12.676  19.562   5.311  0.0860 -0.5786 -0.1262
    1CHOL    C231976  12.555  19.482   4.863 -0.0709 -0.0332  0.1124
    1CHOL   ROH31977  14.956  10.325   6.812 -0.0208 -0.0654 -0.0431
    1CHOL    R131978  14.760  10.375   6.615 -0.1014 -0.0544  0.0393
    1CHOL    R231979  14.808  10.534   6.394 -0.1824 -0.0661  0.0137
    1CHOL    R331980  14.723  10.315   6.258 -0.2608 -0.0621  0.0562
    1CHOL    R431981  14.719  10.531   6.060 -0.2023 -0.0909  0.0194
    1CHOL    R531982  14.553  10.399   6.111 -0.2432 -0.0305  0.0521
    1CHOL    C131983  14.586  10.323   5.738 -0.2875 -0.1016  0.0626
    1CHOL    C231984  14.500  10.090   5.388 -0.0654 -0.0846 -0.6122
    1CHOL   ROH31985  21.383  11.239   2.615  0.2830 -0.3144 -0.0937
    1CHOL    R131986  21.317  11.299   2.884  0.0586 -0.0508 -0.2034
    1CHOL    R231987  21.359  11.121   3.091 -0.3233  0.0634 -0.0232
    1CHOL    R331988  21.496  11.329   3.199 -0.2399  0.0160 -0.0352
    1CHOL    R431989  21.417  11.166   3.428  0.1225 -0.2106 -0.0547
    1CHOL    R531990  21.379  11.379   3.402  0.0150 -0.1935  0.1734
    1CHOL    C131991  21.579  11.387   3.727  0.4602 -0.4147 -0.0843
    1CHOL    C231992  21.699  11.545   4.160 -0.0966  0.1717  0.1491
    1CHOL   ROH31993  11.757   9.538   3.940 -0.1972 -0.0152  0.3346
    1CHOL    R131994  11.779   9.558   4.221 -0.1507 -0.0648  0.3347
    1CHOL    R231995  11.785   9.336   4.386  0.0668 -0.1023  0.2814
    1CHOL    R331996  12.016   9.449   4.476 -0.0037  0.0648  0.2549
    1CHOL    R431997  11.929   9.271   4.693  0.1992 -0.0691  0.2270
    1CHOL    R531998  11.976   9.484   4.710  0.0260 -0.0336  0.2743
    1CHOL    C131999  12.229   9.340   4.957  0.2102  0.1071  0.1704
    1CHOL    C232000  12.282   9.300   5.233  0.1433  0.1609 -0.1776
    1CHOL   ROH32001  25.298  14.532   2.553  0.0628 -0.1813  0.1641
    1CHOL    R132002  25.501  14.504   2.748  0.0521 -0.1690  0.1772
    1CHOL    R232003  25.575  14.710   2.916  0.1780 -0.0965  0.0351
    1CHOL    R332004  25.525  14.526   3.111  0.0747  0.0637  0.1630
    1CHOL    R432005  25.662  14.746   3.249  0.0668  0.1487  0.0399
    1CHOL    R532006  25.719  14.535   3.252  0.0271  0.1379  0.2253
    1CHOL    C132007  25.667  14.595   3.625 -0.0951  0.4421  0.1627
    1CHOL    C232008  25.959  14.574   3.933  0.2674 -0.0900 -0.2847
    1CHOL   ROH32009  14.151  10.351   3.380 -0.1470  0.0871 -0.2049
    1CHOL    R132010  14.190  10.294   3.654 -0.0149 -0.0296 -0.2467
    1CHOL    R232011  14.438  10.299   3.774  0.0084  0.2015 -0.3019
    1CHOL    R332012  14.316  10.470   3.947 -0.1618 -0.0464 -0.1717
    1CHOL    R432013  14.548  10.368   4.094  0.0958  0.2625 -0.3448
    1CHOL    R532014  14.340  10.365   4.161  0.1321 -0.0872 -0.2200
    1CHOL    C132015  14.498  10.567   4.443 -0.0130  0.0654 -0.2476
    1CHOL    C232016  14.628  10.598   4.825  0.0332  0.1963 -0.1326
    1CHOL   ROH32017  15.255  15.658   2.671  0.0269 -0.2351  0.0895
    1CHOL    R132018  15.399  15.602   2.908  0.1891  0.1036  0.0779
    1CHOL    R232019  15.533  15.797   3.050 -0.2968  0.4479  0.0946
    1CHOL    R332020  15.383  15.704   3.257 -0.0636  0.0323  0.0883
    1CHOL    R432021  15.591  15.865   3.384 -0.3561  0.3914  0.1165
    1CHOL    R532022  15.541  15.659   3.431  0.0731  0.2599  0.0244
    1CHOL    C132023  15.483  15.818   3.772 -0.1717 -0.0317  0.1232
    1CHOL    C232024  15.374  15.892   4.209 -0.1960  0.1035  0.1102
    1CHOL   ROH32025  11.102  21.417   2.935 -0.1943  0.2279  0.0435
    1CHOL    R132026  11.029  21.390   3.207 -0.0281  0.1243  0.0790
    1CHOL    R232027  10.998  21.607   3.375 -0.0675  0.0693  0.1426
    1CHOL    R332028  10.753  21.497   3.418  0.0217 -0.0886  0.2557
    1CHOL    R432029  10.867  21.533   3.686 -0.0158  0.3111  0.2243
    1CHOL    R532030  10.787  21.348   3.603  0.1415  0.1455  0.4284
    1CHOL    C132031  10.562  21.386   3.909  0.0981  0.3038  0.3781
    1CHOL    C232032  10.348  21.669   4.127 -0.1479  0.3778 -0.0523
    1CHOL   ROH32033  17.712  15.727   6.130  0.0437  0.1453  0.1251
    1CHOL    R132034  17.833  15.733   5.874  0.0306  0.0700  0.1171
    1CHOL    R232035  17.771  15.551   5.675 -0.0478  0.0687  0.1433
    1CHOL    R332036  17.722  15.775   5.530  0.0258  0.0689  0.1186
    1CHOL    R432037  17.694  15.556   5.338 -0.0094  0.0609  0.1342
    1CHOL    R532038  17.820  15.732   5.317  0.0376  0.0262  0.1331
    1CHOL    C132039  17.603  15.770   5.006  0.0815  0.0566  0.1057
    1CHOL    C232040  17.566  15.916   4.612  0.0952 -0.0575  0.0998
    1CHOL   ROH32041  20.717  16.857   2.607  0.1034 -0.0337 -0.0779
    1CHOL    R132042  20.869  16.777   2.832 -0.0060 -0.0218  0.0010
    1CHOL    R232043  20.968  16.956   3.016 -0.0838 -0.0124  0.0296
    1CHOL    R332044  20.838  16.796   3.194 -0.1731  0.0109 -0.0135
    1CHOL    R432045  21.005  16.973   3.360  0.0565 -0.2289  0.0273
    1CHOL    R532046  21.001  16.755   3.365 -0.1463 -0.2339 -0.0914
    1CHOL    C132047  20.905  16.833   3.726  0.0547 -0.3332 -0.0146
    1CHOL    C232048  21.148  17.186   3.867 -0.0002 -0.5237 -0.1478
    1CHOL   ROH32049   3.113   5.505   6.354 -0.2675  0.2120  0.1880
    1CHOL    R132050   3.179   5.477   6.080 -0.1164  0.0716  0.2384
    1CHOL    R232051   2.999   5.387   5.892 -0.0399  0.0704  0.1742
    1CHOL    R332052   3.064   5.618   5.765  0.1306 -0.0107  0.1072
    1CHOL    R432053   2.998   5.429   5.549 -0.3196  0.0547  0.1695
    1CHOL    R532054   3.182   5.546   5.568 -0.1449 -0.1719 -0.0089
    1CHOL    C132055   3.058   5.671   5.230 -0.3223 -0.0306  0.1039
    1CHOL    C232056   2.770   5.751   4.960  0.3467 -0.3640  0.1475
    1CHOL   ROH32057   1.544  27.321   3.397  0.1209  0.0490 -0.3433
    1CHOL    R132058   1.630  27.388   3.658 -0.0165 -0.0494 -0.2726
    1CHOL    R232059   1.897  27.392   3.731 -0.0534 -0.0021 -0.1537
    1CHOL    R332060   1.838  27.645   3.810 -0.1625 -0.0569 -0.0526
    1CHOL    R432061   2.021  27.544   4.015  0.1383  0.0401 -0.2574
    1CHOL    R532062   1.824  27.631   4.049  0.1005 -0.1115 -0.0346
    1CHOL    C132063   2.038  27.870   4.255  0.1476  0.0130 -0.2229
    1CHOL    C232064   1.944  28.137   4.580  0.1556  0.0091  0.2338
    1CHOL   ROH32065  11.896  14.510   3.062  0.0715  0.2713 -0.1443
    1CHOL    R132066  11.858  14.451   3.337 -0.0178  0.1936 -0.1725
    1CHOL    R232067  12.067  14.441   3.517 -0.0599  0.0218 -0.1289
    1CHOL    R332068  11.916  14.621   3.653  0.0025  0.0533 -0.1011
    1CHOL    R432069  12.107  14.520   3.851  0.0624  0.0721 -0.1547
    1CHOL    R532070  11.890  14.524   3.871  0.0720  0.0909 -0.0777
    1CHOL    C132071  11.987  14.735   4.174  0.1922  0.1308 -0.1437
    1CHOL    C232072  12.126  14.627   4.613  0.0169  0.1651 -0.2772
    1CHOL   ROH32073  19.270  15.379   6.010  0.2447 -0.1758 -0.0206
    1CHOL    R132074  19.289  15.262   5.753  0.0260 -0.1023 -0.0719
    1CHOL    R232075  19.074  15.249   5.580 -0.0497  0.2107 -0.0083
    1CHOL    R332076  19.245  15.373   5.409  0.0393  0.0791 -0.0162
    1CHOL    R432077  19.014  15.304   5.244  0.0534  0.1014 -0.0453
    1CHOL    R532078  19.222  15.254   5.203  0.0450  0.0066  0.0250
    1CHOL    C132079  19.140  15.452   4.888  0.1973 -0.0858 -0.0742
    1CHOL    C232080  19.067  15.587   4.605  0.1558 -0.1686  0.3076
    1CHOL   ROH32081  19.350   3.497   6.827  0.1496  0.2681 -0.0768
    1CHOL    R132082  19.196   3.560   6.598  0.1577  0.2868 -0.0738
    1CHOL    R232083  18.926   3.504   6.580  0.1947  0.1942 -0.1250
    1CHOL    R332084  18.908   3.769   6.522  0.0873  0.2064 -0.0531
    1CHOL    R432085  18.734   3.639   6.326  0.4637  0.1141 -0.3785
    1CHOL    R532086  18.897   3.778   6.283  0.4441  0.2623 -0.0865
    1CHOL    C132087  18.606   3.966   6.124  0.5198  0.0789 -0.4586
    1CHOL    C232088  18.623   4.226   5.783  0.0501 -0.0070 -0.0298
    1CHOL   ROH32089  15.199  18.949   6.327 -0.0480 -0.0765  0.2150
    1CHOL    R132090  15.186  18.963   6.045 -0.0219 -0.0832  0.2143
    1CHOL    R232091  14.964  18.882   5.902 -0.0358 -0.0109  0.2037
    1CHOL    R332092  14.980  19.132   5.798  0.0563 -0.0220  0.1885
    1CHOL    R432093  14.906  18.963   5.571 -0.0113 -0.0179  0.1969
    1CHOL    R532094  15.074  19.101   5.580  0.0444 -0.0765  0.1869
    1CHOL    C132095  14.887  19.245   5.281  0.0896 -0.0322  0.1787
    1CHOL    C232096  14.782  19.272   4.988 -0.1588  0.4517 -0.0687
    1CHOL   ROH32097  26.580  19.483   5.266 -0.2098 -0.2049  0.0575
    1CHOL    R132098  26.774  19.573   5.081 -0.2279 -0.0051  0.1331
    1CHOL    R232099  26.879  19.409   4.884  0.0409  0.0914  0.1942
    1CHOL    R332100  26.798  19.609   4.719 -0.1118 -0.0142  0.1387
    1CHOL    R432101  26.923  19.413   4.541  0.1741  0.0941  0.2104
    1CHOL    R532102  26.971  19.625   4.555 -0.0595  0.1519  0.2053
    1CHOL    C132103  26.872  19.602   4.187  0.1083 -0.0034  0.1676
    1CHOL    C232104  26.603  19.685   3.889 -0.0646  0.0123 -0.2267
    1CHOL   ROH32105  11.007  20.124   6.038 -0.0853  0.0236 -0.0021
    1CHOL    R132106  11.124  20.043   5.794  0.1268  0.1641  0.0525
    1CHOL    R232107  10.988  20.053   5.553  0.1496 -0.1956  0.0326
    1CHOL    R332108  11.204  20.198   5.475 -0.1158  0.2078  0.0070
    1CHOL    R432109  11.060  20.139   5.226  0.1063 -0.3560 -0.0221
    1CHOL    R532110  11.270  20.098   5.267  0.1965  0.1345  0.1263
    1CHOL    C132111  11.305  20.325   4.962 -0.1681 -0.0707 -0.0781
    1CHOL    C232112  11.547  20.362   4.637  0.0198  0.3577  0.0702
    1CHOL   ROH32113  21.207  13.938   5.885 -0.0125  0.0077  0.0328
    1CHOL    R132114  21.114  13.944   5.618  0.0184  0.0299  0.0215
    1CHOL    R232115  21.240  14.089   5.420  0.0680  0.0135  0.0356
    1CHOL    R332116  21.243  13.850   5.291  0.0406  0.0141  0.0360
    1CHOL    R432117  21.253  14.050   5.076 -0.1822  0.0098  0.0256
    1CHOL    R532118  21.110  13.886   5.095 -0.1183 -0.0302  0.1368
    1CHOL    C132119  21.263  13.802   4.756 -0.3535  0.0082  0.0201
    1CHOL    C232120  21.275  13.548   4.481  0.0568  0.0658 -0.0908
    1CHOL   ROH32121  10.062  10.172   4.214 -0.0756  0.0590 -0.0662
    1CHOL    R132122   9.991  10.198   4.487 -0.0632  0.1714 -0.0735
    1CHOL    R232123  10.095  10.035   4.685 -0.2613  0.0718 -0.0498
    1CHOL    R332124  10.162  10.273   4.799  0.0048  0.0099 -0.0707
    1CHOL    R432125  10.211  10.073   5.008 -0.2265 -0.0314 -0.0498
    1CHOL    R532126  10.088  10.252   5.026 -0.0267  0.1127 -0.0700
    1CHOL    C132127  10.341  10.317   5.304  0.0435 -0.1497 -0.0695
    1CHOL    C232128  10.242  10.434   5.604 -0.0838 -0.0210 -0.1686
    1CHOL   ROH32129  10.759   8.327   6.860 -0.1274 -0.0483  0.1190
    1CHOL    R132130  10.791   8.183   6.618 -0.0104 -0.0982  0.1598
    1CHOL    R232131  10.927   8.285   6.400 -0.1687 -0.0066  0.0790
    1CHOL    R332132  11.069   8.055   6.422  0.1055  0.1688  0.1566
    1CHOL    R432133  11.041   8.097   6.134 -0.1240 -0.1036  0.1689
    1CHOL    R532134  10.988   7.917   6.244  0.1585 -0.0674  0.3312
    1CHOL    C132135  11.241   7.771   5.999  0.1593  0.0048  0.2942
    1CHOL    C232136  11.202   7.809   5.563  0.0536  0.1219 -0.0415
    1CHOL   ROH32137  20.544   2.170   6.211 -0.1092  0.1638  0.1454
    1CHOL    R132138  20.350   2.098   6.018 -0.1229  0.1775  0.1546
    1CHOL    R232139  20.195   2.286   5.886  0.0361  0.2035  0.0034
    1CHOL    R332140  20.293   2.161   5.664 -0.0087 -0.0105  0.1012
    1CHOL    R432141  20.023   2.245   5.589  0.0196  0.0226  0.0367
    1CHOL    R532142  20.105   2.044   5.574 -0.0504 -0.0196  0.1983
    1CHOL    C132143  20.013   2.104   5.209 -0.0322 -0.2836  0.1479
    1CHOL    C232144  19.808   2.191   4.993 -0.0968  0.2620 -0.1253
    1CHOL   ROH32145  27.937  14.428   4.534 -0.0460 -0.0716  0.0244
    1CHOL    R132146  28.001  14.156   4.489 -0.0493 -0.0637 -0.0340
    1CHOL    R232147  28.013  14.046   4.235  0.0722  0.0179 -0.0705
    1CHOL    R332148  28.262  13.972   4.314  0.0238 -0.0263  0.0384
    1CHOL    R432149  28.231  13.853   4.049  0.0729 -0.1412  0.0950
    1CHOL    R532150  28.288  13.749   4.232 -0.0172 -0.0700  0.1563
    1CHOL    C132151  28.592  13.671   4.016  0.0277 -0.2753  0.2937
    1CHOL    C232152  28.932  13.717   3.867  0.0061 -0.0831  0.2002
    1CHOL   ROH32153  11.469   7.022   5.255 -0.1373 -0.0355 -0.2643
    1CHOL    R132154  11.749   7.014   5.292 -0.1470  0.0340 -0.1812
    1CHOL    R232155  11.914   7.226   5.226 -0.1996  0.1302  0.0130
    1CHOL    R332156  11.996   7.201   5.483 -0.2652 -0.0125  0.0220
    1CHOL    R432157  12.203   7.364   5.355 -0.1062 -0.1356  0.0967
    1CHOL    R532158  12.234   7.181   5.468 -0.2733 -0.2005  0.0522
    1CHOL    C132159  12.449   7.421   5.672 -0.1134 -0.4243  0.1540
    1CHOL    C232160  12.486   7.815   5.611 -0.0896  0.0841 -0.1812
    1CHOL   ROH32161   6.061  20.720   2.998 -0.2273 -0.1548  0.1343
    1CHOL    R132162   6.197  20.516   3.138 -0.2436 -0.2684 -0.0130
    1CHOL    R232163   6.259  20.272   3.024 -0.1004 -0.1240 -0.2499
    1CHOL    R332164   6.511  20.335   3.104 -0.1651 -0.1298 -0.0348
    1CHOL    R432165   6.440  20.098   3.261 -0.2363 -0.2419 -0.2315
    1CHOL    R532166   6.512  20.288   3.339 -0.3214 -0.2768 -0.0610
    1CHOL    C132167   6.782  20.055   3.475 -0.3762 -0.3162 -0.0188
    1CHOL    C232168   6.799  19.740   3.808 -0.4047  0.1822 -0.0164
    1CHOL   ROH32169  19.210  15.126   2.654 -0.3465  0.1306 -0.0119
    1CHOL    R132170  19.122  15.094   2.922 -0.1431 -0.0311  0.0388
    1CHOL    R232171  19.252  14.932   3.103  0.0885 -0.0183 -0.1130
    1CHOL    R332172  19.256  15.158   3.254  0.0442 -0.0735 -0.0275
    1CHOL    R432173  19.249  14.940   3.449  0.1682 -0.1551 -0.1085
    1CHOL    R532174  19.113  15.110   3.439  0.1043 -0.1976 -0.0109
    1CHOL    C132175  19.252  15.157   3.791  0.1729 -0.2865 -0.0256
    1CHOL    C232176  19.236  14.956   4.035  0.2560  0.3039 -0.1914
    1CHOL   ROH32177  14.953  21.033   3.141  0.1542  0.1327  0.1419
    1CHOL    R132178  15.038  20.970   3.404  0.0178  0.0032  0.1557
    1CHOL    R232179  14.989  21.136   3.620  0.1439  0.0288  0.1635
    1CHOL    R332180  14.879  20.911   3.726 -0.1317  0.1335  0.1071
    1CHOL    R432181  14.955  21.073   3.958  0.2250 -0.0870  0.1511
    1CHOL    R532182  15.011  20.865   3.920 -0.0947 -0.1554  0.0194
    1CHOL    C132183  14.832  20.825   4.254  0.0136 -0.0562  0.0908
    1CHOL    C232184  14.503  20.829   4.555  0.0779 -0.2337 -0.0741
    1CHOL   ROH32185   2.277  15.345   5.121 -0.1034  0.2584 -0.0776
    1CHOL    R132186   2.166  15.334   4.860 -0.1504  0.1256 -0.0527
    1CHOL    R232187   2.215  15.124   4.688 -0.1209  0.0725  0.0170
    1CHOL    R332188   1.944  15.111   4.678 -0.1191 -0.0123  0.0760
    1CHOL    R432189   2.033  14.970   4.437 -0.1307  0.0511  0.0376
    1CHOL    R532190   1.891  15.135   4.445 -0.1805  0.0037  0.0926
    1CHOL    C132191   1.673  14.868   4.282 -0.1348 -0.0410  0.1050
    1CHOL    C232192   1.432  14.920   3.852  0.0682 -0.0799  0.1670
    1CHOL   ROH32193  18.669  24.433   5.183  0.1535  0.0147  0.0989
    1CHOL    R132194  18.643  24.245   4.973  0.1944 -0.0060  0.1127
    1CHOL    R232195  18.805  24.022   4.953  0.0649 -0.1163  0.2817
    1CHOL    R332196  18.567  23.890   4.945 -0.0176  0.0372  0.1185
    1CHOL    R432197  18.767  23.690   4.865 -0.0617 -0.1478  0.4491
    1CHOL    R532198  18.587  23.744   4.755  0.0861 -0.0935  0.2260
    1CHOL    C132199  18.522  23.372   4.806 -0.2126 -0.0220  0.3935
    1CHOL    C232200  18.868  23.261   4.563  0.3690 -0.1231 -0.2608
    1CHOL   ROH32201  19.633  29.420   3.321  0.1019  0.0104  0.1505
    1CHOL    R132202  19.509  29.374   3.571  0.1428 -0.1480  0.1434
    1CHOL    R232203  19.497  29.567   3.768  0.1510 -0.2618  0.2594
    1CHOL    R332204  19.230  29.515   3.758  0.1554 -0.2838  0.2657
    1CHOL    R432205  19.275  29.621   4.028  0.1540 -0.2932  0.2678
    1CHOL    R532206  19.178  29.433   3.977  0.1686 -0.2980  0.2626
    1CHOL    C132207  18.896  29.603   4.170  0.1598 -0.3318  0.2787
    1CHOL    C232208  18.594  29.485   4.313 -0.1144 -0.0030 -0.1295
    1CHOL   ROH32209   8.466   9.586   4.329  0.0867 -0.2855  0.1142
    1CHOL    R132210   8.471   9.741   4.567  0.0464 -0.1580  0.0330
    1CHOL    R232211   8.383   9.643   4.810  0.0471 -0.0437  0.0797
    1CHOL    R332212   8.631   9.718   4.893  0.0300  0.0414  0.0561
    1CHOL    R432213   8.474   9.701   5.138  0.0897 -0.1230  0.0822
    1CHOL    R532214   8.591   9.871   5.072 -0.0037 -0.0435  0.1213
    1CHOL    C132215   8.760   9.804   5.407  0.0984 -0.0893  0.0615
    1CHOL    C232216   8.966   9.842   5.801  0.1861  0.0079 -0.1192
    1CHOL   ROH32217  20.238  22.356   5.830 -0.1295 -0.1227 -0.0381
    1CHOL    R132218  20.191  22.263   5.567 -0.1698 -0.0014 -0.0747
    1CHOL    R232219  20.199  22.429   5.346 -0.0004  0.0633 -0.0236
    1CHOL    R332220  20.377  22.246   5.254 -0.1381 -0.0573 -0.0519
    1CHOL    R432221  20.287  22.389   5.015  0.2406  0.2945  0.0087
    1CHOL    R532222  20.285  22.173   5.046 -0.0452  0.2625 -0.2092
    1CHOL    C132223  20.505  22.193   4.735  0.2517  0.3159  0.0010
    1CHOL    C232224  20.535  21.795   4.611 -0.0387 -0.2460 -0.0185
    1CHOL   ROH32225   8.759   2.831   3.808 -0.0455  0.0180  0.0437
    1CHOL    R132226   8.580   2.929   4.004 -0.0608  0.0883 -0.0040
    1CHOL    R232227   8.492   2.775   4.216 -0.2339  0.0984 -0.0624
    1CHOL    R332228   8.586   2.982   4.364 -0.1604  0.0147  0.0077
    1CHOL    R432229   8.359   2.878   4.517 -0.3277  0.1836 -0.1327
    1CHOL    R532230   8.389   3.084   4.455 -0.1312  0.1621 -0.0994
    1CHOL    C132231   8.369   3.132   4.833 -0.3133  0.1546 -0.1078
    1CHOL    C232232   8.228   3.463   5.043 -0.3556 -0.0126 -0.4772
    1CHOL   ROH32233  17.685  21.129   2.920  0.0898  0.2074 -0.1196
    1CHOL    R132234  17.841  21.229   3.134  0.0788 -0.0834  0.0297
    1CHOL    R232235  17.772  21.457   3.274  0.3051 -0.0234  0.0389
    1CHOL    R332236  17.794  21.293   3.489 -0.0976 -0.1197  0.0148
    1CHOL    R432237  17.708  21.550   3.600  0.4959  0.0870  0.0470
    1CHOL    R532238  17.881  21.433   3.662  0.2280 -0.3410  0.0432
    1CHOL    C132239  17.691  21.450   3.993  0.2291  0.0609  0.0292
    1CHOL    C232240  17.633  21.572   4.432  0.0169 -0.0002 -0.0902
    1CHOL   ROH32241  11.453  10.071   7.264 -0.3318  0.1658  0.1241
    1CHOL    R132242  11.315  10.057   7.018 -0.1307 -0.0906  0.0210
    1CHOL    R232243  11.410  10.173   6.787 -0.1614  0.0698  0.0822
    1CHOL    R332244  11.380   9.923   6.685  0.3533  0.0008  0.0730
    1CHOL    R432245  11.315  10.103   6.462 -0.3746 -0.1113  0.1819
    1CHOL    R532246  11.190   9.941   6.539  0.1230 -0.4528  0.3021
    1CHOL    C132247  11.231   9.826   6.178 -0.0155 -0.2814  0.2313
    1CHOL    C232248  11.076   9.780   5.864  0.0880  0.1010 -0.2764
    1CHOL   ROH32249  14.416  15.350   6.266  0.0577 -0.2227  0.0913
    1CHOL    R132250  14.438  15.438   5.998  0.1137 -0.2253  0.0954
    1CHOL    R232251  14.615  15.325   5.819  0.1120 -0.2628  0.1198
    1CHOL    R332252  14.392  15.292   5.668  0.1261 -0.2110  0.0868
    1CHOL    R432253  14.597  15.383   5.479  0.1111 -0.0092  0.1614
    1CHOL    R532254  14.400  15.472   5.510  0.0835 -0.0863  0.2226
    1CHOL    C132255  14.376  15.387   5.139  0.1238  0.1871  0.1546
    1CHOL    C232256  14.341  15.462   4.843  0.0180 -0.0205  0.0478
    1CHOL   ROH32257  20.388  19.745   5.779  0.1174  0.3122 -0.1820
    1CHOL    R132258  20.316  19.633   5.530  0.0346  0.0501 -0.0441
    1CHOL    R232259  20.398  19.741   5.289 -0.2405 -0.0589 -0.1899
    1CHOL    R332260  20.489  19.489   5.244 -0.0418 -0.0130 -0.0593
    1CHOL    R432261  20.585  19.645   5.015 -0.2459 -0.0709 -0.1896
    1CHOL    R532262  20.470  19.460   5.007 -0.0946 -0.1767 -0.0375
    1CHOL    C132263  20.780  19.352   4.813 -0.0625 -0.0347 -0.0669
    1CHOL    C232264  20.760  19.303   4.367 -0.1732  0.4637 -0.0444
    1CHOL   ROH32265  30.033  26.408   5.999 -0.0501  0.1798 -0.0778
    1CHOL    R132266  29.957  26.265   5.767  0.0226  0.0605 -0.0289
    1CHOL    R232267  29.865  26.390   5.538 -0.0553 -0.0655 -0.0675
    1CHOL    R332268  30.064  26.248   5.419  0.0215  0.0068 -0.0269
    1CHOL    R432269  29.857  26.273   5.213 -0.0551 -0.2851  0.0104
    1CHOL    R532270  29.949  26.088   5.283  0.1044 -0.1712  0.1080
    1CHOL    C132271  30.039  26.071   4.912  0.0167 -0.3453  0.0940
    1CHOL    C232272  30.188  25.888   4.637 -0.2869 -0.2740  0.2028
    1CHOL   ROH32273  23.463   5.780   4.168 -0.2057 -0.1867 -0.3925
    1CHOL    R132274  23.299   5.638   4.350  0.0203 -0.0429 -0.0654
    1CHOL    R232275  23.270   5.714   4.615  0.0594  0.4002 -0.1750
    1CHOL    R332276  23.005   5.711   4.553  0.0339  0.0140 -0.0683
    1CHOL    R432277  23.014   5.763   4.841  0.0844  0.3062 -0.1270
    1CHOL    R532278  22.902   5.605   4.741  0.2364  0.0701  0.0737
    1CHOL    C132279  22.616   5.788   4.915  0.0753 -0.1111  0.0012
    1CHOL    C232280  22.357   5.935   4.902 -0.1616  0.1293  0.4247
    1CHOL   ROH32281  16.201  21.981   6.486  0.0901  0.2945  0.0493
    1CHOL    R132282  16.336  22.037   6.244 -0.0511  0.3151 -0.0250
    1CHOL    R232283  16.368  21.849   6.044  0.1004  0.2401  0.0745
    1CHOL    R332284  16.253  22.041   5.889 -0.1675  0.0228 -0.0050
    1CHOL    R432285  16.338  21.834   5.700  0.0413  0.0095  0.0880
    1CHOL    R532286  16.388  22.046   5.691 -0.2127  0.0727 -0.0391
    1CHOL    C132287  16.213  22.004   5.354 -0.2448 -0.3286  0.0212
    1CHOL    C232288  16.318  22.203   4.929  0.2285 -0.0510 -0.0885
    1CHOL   ROH32289  10.949  10.119   4.076 -0.1937 -0.1849 -0.0161
    1CHOL    R132290  10.959  10.171   4.354 -0.1139 -0.1746 -0.0194
    1CHOL    R232291  11.090  10.006   4.532 -0.0238 -0.1473 -0.0532
    1CHOL    R332292  11.218  10.235   4.602 -0.0437 -0.1205 -0.1065
    1CHOL    R432293  11.172  10.094   4.856 -0.1870  0.0082 -0.0546
    1CHOL    R532294  11.115  10.300   4.808 -0.1485 -0.0092 -0.1911
    1CHOL    C132295  11.340  10.361   5.110 -0.3007  0.1240 -0.1053
    1CHOL    C232296  11.367  10.457   5.418 -0.1512 -0.1964 -0.1822
    1CHOL   ROH32297  28.268  19.250   3.017  0.0568  0.2219 -0.0030
    1CHOL    R132298  28.498  19.237   3.181 -0.0242  0.2165  0.1111
    1CHOL    R232299  28.491  19.142   3.441 -0.1137  0.0033  0.0298
    1CHOL    R332300  28.687  18.977   3.351  0.0280  0.1825  0.0035
    1CHOL    R432301  28.734  18.996   3.639  0.0275  0.2055  0.0088
    1CHOL    R532302  28.879  19.035   3.482 -0.0135  0.3470 -0.0014
    1CHOL    C132303  29.059  18.756   3.670  0.2428  0.4914 -0.0282
    1CHOL    C232304  29.249  18.455   3.903 -0.1825 -0.1273  0.1336
    1CHOL   ROH32305  22.859  11.116   3.043  0.1059  0.0511 -0.0730
    1CHOL    R132306  22.733  11.141   3.295 -0.0607  0.0075 -0.1506
    1CHOL    R232307  22.493  11.016   3.355  0.0309 -0.2208 -0.2407
    1CHOL    R332308  22.635  10.918   3.565  0.0208 -0.0037 -0.1312
    1CHOL    R432309  22.391  11.027   3.684 -0.0477 -0.0145 -0.2710
    1CHOL    R532310  22.595  11.075   3.742 -0.0834  0.1118 -0.2579
    1CHOL    C132311  22.463  10.942   4.074 -0.1028  0.3094 -0.1860
    1CHOL    C232312  22.025  10.733   4.173  0.0532 -0.3281  0.1284
    1CHOL   ROH32313  12.857  20.663   6.669 -0.0077 -0.0045  0.1564
    1CHOL    R132314  12.811  20.642   6.390 -0.0802  0.0451  0.1645
    1CHOL    R232315  12.828  20.858   6.220 -0.1000  0.0702  0.1956
    1CHOL    R332316  13.002  20.698   6.086 -0.1511  0.0733  0.1248
    1CHOL    R432317  12.848  20.833   5.876 -0.2082  0.1055  0.1861
    1CHOL    R532318  12.876  20.618   5.898 -0.2147  0.1009  0.1548
    1CHOL    C132319  13.023  20.668   5.549 -0.3191  0.1289  0.1141
    1CHOL    C232320  12.739  20.509   5.403  0.0701 -0.2563 -0.1912
    1CHOL   ROH32321  16.061   7.379   4.008  0.0860  0.0624  0.0580
    1CHOL    R132322  16.216   7.286   4.226  0.0461  0.0041  0.0607
    1CHOL    R232323  16.369   7.455   4.383  0.0014 -0.0372  0.1431
    1CHOL    R332324  16.227   7.341   4.585 -0.0304 -0.1091  0.0818
    1CHOL    R432325  16.462   7.454   4.716 -0.2264  0.1728  0.2109
    1CHOL    R532326  16.392   7.249   4.731 -0.0350  0.1036  0.2300
    1CHOL    C132327  16.383   7.347   5.099 -0.3888  0.2275  0.1928
    1CHOL    C232328  16.373   7.234   5.482  0.1375 -0.1032  0.4056
    1CHOL   ROH32329  15.340  16.711   2.981 -0.0653  0.2323 -0.0583
    1CHOL    R132330  15.458  16.765   3.233  0.0560  0.0384 -0.0718
    1CHOL    R232331  15.382  16.979   3.390  0.2602  0.0247  0.0474
    1CHOL    R332332  15.344  16.787   3.578  0.1848 -0.0312 -0.0239
    1CHOL    R432333  15.395  17.032   3.731  0.4416 -0.1334  0.0667
    1CHOL    R532334  15.500  16.842   3.751  0.3020 -0.2290 -0.0611
    1CHOL    C132335  15.366  16.882   4.106  0.4766 -0.2778  0.0111
    1CHOL    C232336  15.198  17.107   4.410 -0.1210  0.2016 -0.0824
    1CHOL   ROH32337  28.007  26.252   3.358 -0.2181  0.1376  0.1964
    1CHOL    R132338  28.186  26.097   3.512 -0.1287  0.0483  0.0044
    1CHOL    R232339  28.458  26.091   3.463 -0.1608  0.0696 -0.1601
    1CHOL    R332340  28.474  26.159   3.726  0.0015 -0.0788 -0.1286
    1CHOL    R432341  28.696  25.972   3.685 -0.0799 -0.1418 -0.3557
    1CHOL    R532342  28.540  25.957   3.836 -0.0096 -0.1698 -0.2777
    1CHOL    C132343  28.849  25.967   4.060  0.1193 -0.4043 -0.4401
    1CHOL    C232344  29.155  26.077   4.381  0.1797 -0.0350 -0.0633
    1CHOL   ROH32345  16.748  14.555   6.115 -0.1200 -0.0310 -0.0633
    1CHOL    R132346  16.712  14.375   5.900 -0.0129 -0.0957 -0.0286
    1CHOL    R232347  16.669  14.459   5.640 -0.1634 -0.1690 -0.0307
    1CHOL    R332348  16.882  14.298   5.587 -0.0262  0.0201 -0.0644
    1CHOL    R432349  16.721  14.292   5.342 -0.1319 -0.2311  0.0098
    1CHOL    R532350  16.790  14.119   5.457  0.0908 -0.1211  0.0444
    1CHOL    C132351  16.950  14.043   5.119  0.0154 -0.0896  0.0018
    1CHOL    C232352  17.012  14.240   4.840  0.1680  0.1839 -0.1864
    1CHOL   ROH32353  25.452  28.900   3.466  0.0498 -0.1254 -0.0165
    1CHOL    R132354  25.637  28.930   3.678  0.1236 -0.0788 -0.0868
    1CHOL    R232355  25.633  28.770   3.904  0.0344  0.1392  0.0716
    1CHOL    R332356  25.893  28.726   3.837 -0.0166 -0.1486  0.0512
    1CHOL    R432357  25.875  28.651   4.120  0.0187  0.2971  0.1774
    1CHOL    R532358  26.016  28.792   4.032  0.0922  0.0646 -0.0871
    1CHOL    C132359  26.260  28.541   4.183 -0.0382  0.1187  0.2197
    1CHOL    C232360  26.335  28.287   4.534  0.0995 -0.0272 -0.1803
    1CHOL   ROH32361  12.599  13.561   3.116  0.0607 -0.1807  0.0011
    1CHOL    R132362  12.661  13.561   3.392  0.1889 -0.0201 -0.0273
    1CHOL    R232363  12.889  13.681   3.494  0.0790  0.3081 -0.1687
    1CHOL    R332364  12.711  13.811   3.652 -0.0181  0.1216 -0.1196
    1CHOL    R432365  12.940  13.759   3.826  0.0587  0.2737 -0.1567
    1CHOL    R532366  12.732  13.706   3.866  0.1008  0.0851 -0.1436
    1CHOL    C132367  12.802  13.927   4.169 -0.0443  0.0787 -0.1036
    1CHOL    C232368  12.990  13.976   4.522  0.2100 -0.0964 -0.0821
    1CHOL   ROH32369  13.653   0.203   6.303 -0.1316 -0.0309  0.0036
    1CHOL    R132370  13.801   0.248   6.067 -0.1015 -0.0480  0.0190
    1CHOL    R232371  13.933   0.485   6.017 -0.1505 -0.0260 -0.0114
    1CHOL    R332372  14.147   0.322   5.981 -0.1047  0.0170  0.0634
    1CHOL    R432373  14.213   0.565   5.830 -0.1590 -0.0260 -0.0243
    1CHOL    R532374  14.214   0.361   5.754 -0.1001 -0.0534  0.0538
    1CHOL    C132375  14.577   0.459   5.688 -0.1210  0.0144  0.0384
    1CHOL    C232376  14.841   0.703   5.716 -0.1154 -0.1803 -0.0933
    1CHOL   ROH32377  22.618   4.885   6.554 -0.2077 -0.1031 -0.1360
    1CHOL    R132378  22.796   4.950   6.344 -0.0802 -0.0864 -0.0232
    1CHOL    R232379  22.798   4.814   6.103  0.0625 -0.0635 -0.0324
    1CHOL    R332380  22.767   5.064   6.000  0.1303 -0.0538 -0.0318
    1CHOL    R432381  22.808   4.893   5.767 -0.2887 -0.1280 -0.0627
    1CHOL    R532382  22.920   5.072   5.816 -0.0835 -0.2040 -0.2246
    1CHOL    C132383  22.786   5.172   5.474 -0.4296 -0.1564 -0.0796
    1CHOL    C232384  22.553   5.317   5.130  0.2713 -0.0946 -0.1821
    1CHOL   ROH32385   2.879  10.986   3.246  0.1845 -0.1575 -0.1264
    1CHOL    R132386   2.748  10.782   3.394  0.1202 -0.0687 -0.0605
    1CHOL    R232387   2.875  10.550   3.471  0.0087 -0.1424 -0.1028
    1CHOL    R332388   2.789  10.623   3.718  0.1577 -0.0770 -0.0689
    1CHOL    R432389   2.821  10.331   3.733 -0.0983 -0.1109 -0.0976
    1CHOL    R532390   2.642  10.445   3.785  0.0190  0.0488 -0.0301
    1CHOL    C132391   2.709  10.273   4.118 -0.0207 -0.0313 -0.0628
    1CHOL    C232392   2.844   9.900   4.244  0.0109 -0.0012 -0.0542
    1CHOL   ROH32393  25.647  28.773   5.278 -0.0784  0.2607 -0.1983
    1CHOL    R132394  25.475  28.602   5.132 -0.0012  0.1030 -0.1072
    1CHOL    R232395  25.570  28.401   4.969  0.0877  0.0031  0.0646
    1CHOL    R332396  25.405  28.245   5.119  0.0978  0.0724  0.1476
    1CHOL    R432397  25.511  28.065   4.913 -0.0790  0.0266  0.0950
    1CHOL    R532398  25.300  28.099   4.960 -0.0420  0.1140  0.1997
    1CHOL    C132399  25.322  27.723   5.021 -0.1666  0.1052  0.1906
    1CHOL    C232400  25.518  27.409   5.079 -0.1478  0.1192  0.1005
    1CHOL   ROH32401  19.213  14.349   6.084  0.0194  0.1468  0.0166
    1CHOL    R132402  19.233  14.199   5.845  0.0072  0.1250  0.0283
    1CHOL    R232403  19.016  14.072   5.730  0.0209  0.0115  0.1136
    1CHOL    R332404  19.091  14.214   5.511 -0.1123  0.0227  0.0756
    1CHOL    R432405  18.997  13.957   5.405  0.1368 -0.0865  0.1410
    1CHOL    R532406  19.190  14.051   5.365  0.0437  0.0840  0.1186
    1CHOL    C132407  19.056  14.024   5.009  0.0793 -0.1331  0.1214
    1CHOL    C232408  19.251  13.976   4.646  0.1098  0.2624 -0.1153
    1CHOL   ROH32409   6.745  15.735   6.261 -0.2304 -0.0185  0.0623
    1CHOL    R132410   6.692  15.828   5.999 -0.1755 -0.0625  0.0362
    1CHOL    R232411   6.855  16.009   5.869 -0.0951 -0.1638  0.0030
    1CHOL    R332412   6.859  15.818   5.676 -0.1602 -0.2105  0.0463
    1CHOL    R432413   6.907  16.069   5.533  0.1358 -0.2700  0.0176
    1CHOL    R532414   6.753  15.921   5.488  0.0252 -0.1500 -0.0317
    1CHOL    C132415   6.941  15.924   5.156  0.2091 -0.3754  0.0667
    1CHOL    C232416   7.129  16.240   4.847  0.0179  0.3523 -0.0073
    1CHOL   ROH32417  27.368  29.419   3.345 -0.0455  0.1481  0.0403
    1CHOL    R132418  27.267  29.230   3.529 -0.3479  0.2204 -0.0472
    1CHOL    R232419  27.379  29.191   3.778 -0.2168 -0.2789 -0.1774
    1CHOL    R332420  27.126  29.238   3.865 -0.0418  0.2665  0.0844
    1CHOL    R432421  27.268  29.140   4.102 -0.1140 -0.5821 -0.1863
    1CHOL    R532422  27.082  29.061   4.020 -0.4097  0.0757 -0.2173
    1CHOL    C132423  26.966  29.155   4.371  0.1101 -0.2469  0.0542
    1CHOL    C232424  27.112  28.886   4.533 -0.1881 -0.1017 -0.1172
    1CHOL   ROH32425  20.386  15.099   6.036 -0.0807  0.1186 -0.0842
    1CHOL    R132426  20.257  15.121   5.785 -0.0475  0.0243 -0.1101
    1CHOL    R232427  20.354  15.281   5.581 -0.1558  0.1452 -0.0708
    1CHOL    R332428  20.341  15.050   5.438  0.0998  0.1464 -0.1002
    1CHOL    R432429  20.340  15.263   5.236 -0.1780  0.1726 -0.0709
    1CHOL    R532430  20.194  15.101   5.256  0.0150 -0.0035 -0.0743
    1CHOL    C132431  20.318  15.036   4.901  0.0489  0.1896 -0.0985
    1CHOL    C232432  20.020  14.998   4.647  0.0944 -0.1104  0.0902
    1CHOL   ROH32433  11.017  11.234   3.618  0.1577 -0.2078  0.0152
    1CHOL    R132434  10.882  11.426   3.777  0.2264 -0.1063 -0.0487
    1CHOL    R232435  10.712  11.355   3.983  0.0465  0.0196 -0.1525
    1CHOL    R332436  10.873  11.518   4.128  0.1011 -0.1266 -0.0457
    1CHOL    R432437  10.617  11.524   4.269  0.0634 -0.0306 -0.1169
    1CHOL    R532438  10.730  11.696   4.200  0.1835 -0.0693 -0.0215
    1CHOL    C132439  10.714  11.776   4.572  0.1242 -0.1970  0.0041
    1CHOL    C232440  10.666  11.695   4.864 -0.1568 -0.0412  0.1866
    1CHOL   ROH32441  18.835   8.906   6.160 -0.2404 -0.3143 -0.0078
    1CHOL    R132442  18.880   8.664   6.022 -0.1284 -0.2610 -0.0652
    1CHOL    R232443  18.756   8.604   5.782 -0.0638 -0.2411 -0.1017
    1CHOL    R332444  19.011   8.565   5.697 -0.0346 -0.1282 -0.0693
    1CHOL    R432445  18.843   8.481   5.471  0.0245 -0.2945 -0.0568
    1CHOL    R532446  19.000   8.364   5.567  0.0840 -0.1785 -0.0056
    1CHOL    C132447  19.133   8.374   5.209  0.1032 -0.2196 -0.0002
    1CHOL    C232448  19.282   8.378   4.857 -0.0931  0.1697 -0.0667
    1CHOL   ROH32449  12.929  15.693   2.831 -0.1825 -0.0954  0.1064
    1CHOL    R132450  13.127  15.766   3.020 -0.0470 -0.1887  0.0039
    1CHOL    R232451  13.113  15.999   3.168  0.2000 -0.1221 -0.0669
    1CHOL    R332452  13.139  15.830   3.378  0.1430 -0.0751 -0.0228
    1CHOL    R432453  13.186  16.096   3.491  0.1320 -0.0601 -0.0705
    1CHOL    R532454  13.317  15.923   3.509  0.1158 -0.0603 -0.0020
    1CHOL    C132455  13.252  15.993   3.878  0.0389  0.0203 -0.0313
    1CHOL    C232456  13.451  16.245   4.024  0.1305  0.1215 -0.2042
    1CHOL   ROH32457   5.865  27.706   6.043  0.1693  0.0495  0.1145
    1CHOL    R132458   5.889  27.666   5.764  0.2275 -0.1439  0.1445
    1CHOL    R232459   5.797  27.849   5.580 -0.1514 -0.4697 -0.0143
    1CHOL    R332460   6.052  27.834   5.486 -0.1178 -0.0510 -0.0049
    1CHOL    R432461   5.884  27.846   5.245 -0.1359 -0.4724 -0.0094
    1CHOL    R532462   6.035  27.695   5.291  0.1400 -0.1762  0.0630
    1CHOL    C132463   6.174  27.830   4.962 -0.0953 -0.0808  0.0023
    1CHOL    C232464   6.344  28.099   4.706 -0.2626  0.3297 -0.1857
    1CHOL   ROH32465  11.663  13.747   6.460 -0.2389  0.2045 -0.0681
    1CHOL    R132466  11.635  13.648   6.197 -0.0187  0.1564 -0.0761
    1CHOL    R232467  11.408  13.514   6.112  0.1272 -0.0245 -0.1900
    1CHOL    R332468  11.409  13.703   5.917  0.0916 -0.0415 -0.2064
    1CHOL    R432469  11.262  13.478   5.801  0.0010 -0.0215 -0.1314
    1CHOL    R532470  11.434  13.579   5.713 -0.0115 -0.0640 -0.2055
    1CHOL    C132471  11.178  13.635   5.436 -0.1061 -0.0358 -0.1125
    1CHOL    C232472  11.001  13.598   5.141 -0.0733 -0.2909  0.2649
    1CHOL   ROH32473  16.804  21.177   2.884 -0.2336  0.1443 -0.0595
    1CHOL    R132474  16.888  21.136   3.151 -0.1434  0.0396 -0.1043
    1CHOL    R232475  16.828  21.313   3.354 -0.1129 -0.0660 -0.0096
    1CHOL    R332476  16.729  21.090   3.475 -0.0320 -0.1373 -0.0718
    1CHOL    R432477  16.842  21.248   3.694 -0.2565 -0.0577 -0.0002
    1CHOL    R532478  16.887  21.040   3.647 -0.0887 -0.0320  0.0172
    1CHOL    C132479  16.758  21.002   4.004 -0.2641 -0.1201 -0.0531
    1CHOL    C232480  16.809  21.322   4.184 -0.1199 -0.1243 -0.2830
    1CHOL   ROH32481  15.655  14.580   2.781  0.0536  0.0606 -0.0135
    1CHOL    R132482  15.623  14.729   3.020  0.1496 -0.0543  0.0724
    1CHOL    R232483  15.453  14.652   3.222  0.0592 -0.0321  0.0026
    1CHOL    R332484  15.676  14.674   3.376  0.0584 -0.3109  0.0489
    1CHOL    R432485  15.455  14.649   3.568 -0.0970  0.4813  0.0160
    1CHOL    R532486  15.606  14.807   3.563  0.2747  0.1420 -0.1726
    1CHOL    C132487  15.667  14.668   3.913 -0.1886  0.5185  0.0674
    1CHOL    C232488  15.472  14.878   4.101 -0.1892 -0.1974 -0.0788
    1CHOL   ROH32489  15.302  14.653   6.188 -0.0666 -0.1656 -0.0182
    1CHOL    R132490  15.209  14.694   5.924 -0.0440 -0.0909 -0.0146
    1CHOL    R232491  15.311  14.889   5.758 -0.0263 -0.0476  0.0485
    1CHOL    R332492  15.349  14.681   5.588 -0.0168 -0.0016 -0.0069
    1CHOL    R432493  15.281  14.907   5.414 -0.1613  0.0068  0.0620
    1CHOL    R532494  15.183  14.712   5.418 -0.0915 -0.0276  0.0610
    1CHOL    C132495  15.299  14.722   5.055 -0.2309  0.0815  0.0179
    1CHOL    C232496  15.280  15.059   4.771 -0.2933 -0.0449 -0.0538
    1CHOL   ROH32497  14.073  21.533   2.964 -0.0852  0.0202  0.0008
    1CHOL    R132498  13.972  21.503   3.227 -0.4292  0.0963 -0.1187
    1CHOL    R232499  14.122  21.560   3.451 -0.4914 -0.4554  0.0712
    1CHOL    R332500  13.912  21.720   3.513 -0.1459  0.0648 -0.0306
    1CHOL    R432501  14.076  21.719   3.755 -0.3292 -0.4871  0.1144
    1CHOL    R532502  13.864  21.672   3.742 -0.4609  0.0588 -0.0889
    1CHOL    C132503  13.852  21.962   3.989  0.0896 -0.0174  0.0440
    1CHOL    C232504  13.818  22.154   4.186 -0.0307 -0.0034 -0.2526
    1CHOL   ROH32505  14.461  11.336   3.357  0.1203 -0.0911 -0.0072
    1CHOL    R132506  14.498  11.282   3.632  0.1667 -0.0868 -0.0126
    1CHOL    R232507  14.732  11.345   3.766  0.0898  0.1637  0.0089
    1CHOL    R332508  14.562  11.476   3.933 -0.0725 -0.0519  0.0177
    1CHOL    R432509  14.784  11.391   4.105  0.0546  0.2406  0.0041
    1CHOL    R532510  14.572  11.352   4.138  0.1042 -0.0360  0.0200
    1CHOL    C132511  14.656  11.541   4.459 -0.1183  0.0830  0.0096
    1CHOL    C232512  14.839  11.645   4.658 -0.0176  0.0059 -0.1919
    1CHOL   ROH32513  20.935  10.728   6.228  0.1422 -0.1975 -0.0358
    1CHOL    R132514  21.031  10.845   5.989 -0.0266 -0.0716 -0.0435
    1CHOL    R232515  21.144  10.697   5.786  0.1818  0.0750 -0.0356
    1CHOL    R332516  20.956  10.821   5.634  0.0001 -0.1971 -0.0421
    1CHOL    R432517  21.135  10.693   5.440  0.3055  0.1958 -0.0412
    1CHOL    R532518  21.077  10.903   5.445 -0.0770  0.1012  0.0293
    1CHOL    C132519  20.953  10.808   5.097  0.2067  0.0105 -0.0506
    1CHOL    C232520  20.868  10.766   4.670 -0.2043  0.3653 -0.0866
    1CHOL   ROH32521   2.948   3.477   5.984 -0.4217  0.2821 -0.0623
    1CHOL    R132522   2.754   3.400   5.794 -0.2398  0.2184 -0.2289
    1CHOL    R232523   2.818   3.328   5.535  0.0333 -0.0557 -0.1005
    1CHOL    R332524   2.679   3.103   5.597 -0.1591  0.0785 -0.0463
    1CHOL    R432525   2.628   3.147   5.311 -0.2253  0.1051 -0.0140
    1CHOL    R532526   2.478   3.121   5.467 -0.1878  0.2537  0.0332
    1CHOL    C132527   2.386   2.830   5.238 -0.5564  0.3247  0.0873
    1CHOL    C232528   2.054   2.664   5.010  0.2577  0.1412 -0.4756
    1CHOL   ROH32529  16.603  12.020   2.760 -0.0971 -0.2645  0.0224
    1CHOL    R132530  16.725  12.131   2.990 -0.1511 -0.1149 -0.0192
    1CHOL    R232531  16.611  12.115   3.241 -0.1280 -0.1086 -0.0026
    1CHOL    R332532  16.851  12.007   3.309 -0.0545  0.0596  0.0095
    1CHOL    R432533  16.707  12.037   3.563 -0.2108 -0.3569 -0.0358
    1CHOL    R532534  16.907  12.113   3.516 -0.2652 -0.1077  0.1498
    1CHOL    C132535  16.989  11.890   3.815 -0.1900 -0.3436 -0.0438
    1CHOL    C232536  16.727  12.024   4.115 -0.0733 -0.1801  0.0645
    1CHOL   ROH32537  15.794   5.901   4.668  0.3172  0.1161 -0.1034
    1CHOL    R132538  15.868   5.953   4.936 -0.0024  0.0255  0.0064
    1CHOL    R232539  16.040   6.158   5.006  0.1325 -0.1681  0.2519
    1CHOL    R332540  15.836   6.231   5.169 -0.0242  0.0571 -0.0334
    1CHOL    R432541  16.059   6.403   5.249  0.0573 -0.1723  0.2628
    1CHOL    R532542  15.941   6.275   5.380 -0.2634 -0.0434  0.1128
    1CHOL    C132543  15.878   6.614   5.544 -0.1337  0.0365  0.0013
    1CHOL    C232544  15.949   7.010   5.556 -0.0756  0.0907  0.1863
    1CHOL   ROH32545  12.625  13.346   6.661 -0.1231  0.1797 -0.0846
    1CHOL    R132546  12.599  13.333   6.379  0.1856  0.1590 -0.1171
    1CHOL    R232547  12.812  13.282   6.212  0.3021 -0.2896  0.1456
    1CHOL    R332548  12.652  13.083   6.120  0.0269 -0.0162  0.0173
    1CHOL    R432549  12.831  13.142   5.897  0.1608 -0.1747  0.0852
    1CHOL    R532550  12.614  13.138   5.890  0.1539  0.1460  0.0347
    1CHOL    C132551  12.692  12.873   5.627 -0.1798  0.1488 -0.0704
    1CHOL    C232552  12.552  12.777   5.277 -0.2284 -0.0468  0.0378
    1CHOL   ROH32553  19.176  17.971   2.954  0.1225 -0.1400  0.0677
    1CHOL    R132554  19.235  18.008   3.229  0.0154 -0.0839  0.0844
    1CHOL    R232555  19.048  18.101   3.410 -0.0543 -0.0379 -0.0070
    1CHOL    R332556  19.114  17.875   3.545 -0.1159 -0.0125  0.0647
    1CHOL    R432557  19.020  18.061   3.752 -0.1830  0.0346 -0.0089
    1CHOL    R532558  19.211  17.954   3.750 -0.1883  0.0247  0.0838
    1CHOL    C132559  19.066  17.824   4.078 -0.3157  0.1008  0.0574
    1CHOL    C232560  18.966  18.068   4.308  0.1193 -0.0488 -0.1310
    1CHOL   ROH32561   8.832  19.022   3.072 -0.0768  0.1686  0.0111
    1CHOL    R132562   8.895  19.118   3.331 -0.0630 -0.0234  0.0813
    1CHOL    R232563   8.713  19.257   3.487 -0.0328 -0.0727  0.1658
    1CHOL    R332564   8.773  19.065   3.669 -0.0997 -0.2167  0.0380
    1CHOL    R432565   8.638  19.275   3.824  0.2249 -0.1506  0.2293
    1CHOL    R532566   8.833  19.187   3.867  0.1648 -0.3695  0.0533
    1CHOL    C132567   8.651  19.104   4.191  0.3120 -0.3314  0.1462
    1CHOL    C232568   8.439  19.173   4.476  0.1223 -0.1214  0.2429
    1CHOL   ROH32569  22.624  17.032   2.344 -0.0417 -0.1514 -0.0121
    1CHOL    R132570  22.749  16.866   2.537  0.1148 -0.0688 -0.0397
    1CHOL    R232571  22.912  16.966   2.736  0.0505  0.0480 -0.0418
    1CHOL    R332572  22.741  16.830   2.899  0.1750 -0.1119 -0.0433
    1CHOL    R432573  22.972  16.894   3.069  0.0251  0.2842  0.0156
    1CHOL    R532574  22.885  16.696   3.036  0.3081  0.1476  0.0737
    1CHOL    C132575  22.847  16.724   3.415  0.1270  0.2715  0.0475
    1CHOL    C232576  22.834  16.504   3.650 -0.0447  0.0243 -0.1797
    1CHOL   ROH32577   8.525  16.932   6.170  0.1652 -0.0721 -0.0348
    1CHOL    R132578   8.480  16.778   5.937  0.0887  0.0400 -0.0939
    1CHOL    R232579   8.234  16.668   5.876  0.1215 -0.1006  0.0424
    1CHOL    R332580   8.268  16.801   5.641 -0.1701  0.0685  0.0890
    1CHOL    R432581   8.135  16.550   5.567  0.1635 -0.1052  0.0300
    1CHOL    R532582   8.320  16.628   5.483  0.0216  0.2126 -0.0138
    1CHOL    C132583   8.110  16.606   5.166 -0.0857  0.0505  0.0665
    1CHOL    C232584   7.998  16.804   4.825  0.1400 -0.4133 -0.0190
    1CHOL   ROH32585  29.184  15.676   4.783  0.0173  0.1077 -0.1747
    1CHOL    R132586  29.324  15.650   4.538 -0.0257 -0.0051 -0.1882
    1CHOL    R232587  29.351  15.408   4.408 -0.0250 -0.0727 -0.0696
    1CHOL    R332588  29.244  15.545   4.199 -0.0801 -0.1904 -0.1185
    1CHOL    R432589  29.396  15.326   4.075  0.1186 -0.0915 -0.0458
    1CHOL    R532590  29.415  15.539   4.031 -0.0358 -0.0853 -0.0757
    1CHOL    C132591  29.322  15.407   3.685  0.1504 -0.2130 -0.0779
    1CHOL    C232592  29.156  15.559   3.332  0.2035 -0.0876  0.0148
    1CHOL   ROH32593   5.295   2.494   6.378  0.1536 -0.1349  0.0986
    1CHOL    R132594   5.148   2.475   6.137  0.0569 -0.0666  0.1517
    1CHOL    R232595   5.269   2.443   5.891 -0.0413  0.0272  0.0930
    1CHOL    R332596   5.104   2.228   5.873 -0.0299  0.0186  0.0843
    1CHOL    R432597   5.141   2.317   5.596 -0.0043  0.0166  0.0811
    1CHOL    R532598   4.950   2.286   5.698 -0.0157  0.0105  0.0658
    1CHOL    C132599   4.910   2.042   5.407  0.0279  0.0024  0.0659
    1CHOL    C232600   4.950   1.766   5.256  0.0468  0.1250 -0.1906
    1CHOL   ROH32601   4.938  25.662   2.236 -0.0477  0.0683 -0.0083
    1CHOL    R132602   4.996  25.520   2.475  0.0466  0.1301  0.0066
    1CHOL    R232603   4.855  25.560   2.709  0.0374  0.0809  0.0109
    1CHOL    R332604   4.819  25.291   2.695  0.1877  0.0581  0.0456
    1CHOL    R432605   4.691  25.370   2.947 -0.1291  0.0649 -0.1151
    1CHOL    R532606   4.843  25.216   2.921 -0.0223  0.1336  0.0942
    1CHOL    C132607   4.561  25.007   3.072 -0.0851  0.0344 -0.1559
    1CHOL    C232608   4.452  24.986   3.479 -0.0294 -0.2939 -0.1020
    1CHOL   ROH32609  23.315  14.358   5.317 -0.1047 -0.1563 -0.0369
    1CHOL    R132610  23.173  14.295   5.080 -0.0137 -0.0775 -0.1137
    1CHOL    R232611  23.065  14.489   4.915  0.0934 -0.0199 -0.1201
    1CHOL    R332612  23.210  14.361   4.724  0.1547 -0.0046 -0.0833
    1CHOL    R432613  22.986  14.483   4.579 -0.0203 -0.3305 -0.0909
    1CHOL    R532614  23.046  14.273   4.574  0.1897 -0.2751  0.0330
    1CHOL    C132615  23.077  14.360   4.203 -0.0292 -0.4972 -0.0394
    1CHOL    C232616  22.838  14.551   3.925 -0.1393  0.1449 -0.0505
    1CHOL   ROH32617   5.744   7.036   4.602 -0.0767 -0.1282 -0.0589
    1CHOL    R132618   5.786   7.233   4.801 -0.0523 -0.1538 -0.0378
    1CHOL    R232619   5.735   7.188   5.069 -0.0253 -0.1872 -0.0352
    1CHOL    R332620   5.993   7.268   5.099 -0.0202 -0.1975 -0.0559
    1CHOL    R432621   5.887   7.256   5.372 -0.0595  0.0253 -0.0646
    1CHOL    R532622   5.986   7.426   5.279 -0.0246 -0.0601 -0.1783
    1CHOL    C132623   6.218   7.371   5.576 -0.0746  0.1393 -0.1013
    1CHOL    C232624   6.318   7.736   5.657 -0.1496  0.1872 -0.3629
    1CHOL   ROH32625  18.093  19.994   2.673 -0.0704 -0.1468  0.0250
    1CHOL    R132626  18.091  20.123   2.925  0.1125 -0.0921 -0.0002
    1CHOL    R232627  17.861  20.150   3.077  0.1530  0.2368  0.0087
    1CHOL    R332628  18.013  20.031   3.268  0.0118  0.0755  0.0237
    1CHOL    R432629  17.836  20.211   3.416  0.0051  0.0658  0.0308
    1CHOL    R532630  18.054  20.204   3.429 -0.0021 -0.0236  0.1370
    1CHOL    C132631  17.964  20.136   3.793 -0.2133 -0.1854  0.0577
    1CHOL    C232632  18.144  20.228   4.059 -0.0476 -0.2589 -0.1086
    1CHOL   ROH32633  18.692   6.777   6.476  0.1361  0.1970 -0.0224
    1CHOL    R132634  18.774   6.744   6.207  0.0587  0.2763 -0.0566
    1CHOL    R232635  18.941   6.924   6.080  0.2246  0.1846  0.0266
    1CHOL    R332636  19.089   6.701   6.031 -0.0118  0.0591 -0.1318
    1CHOL    R432637  19.237   6.918   5.900  0.2728  0.0184  0.1103
    1CHOL    R532638  19.171   6.732   5.808  0.0877  0.1729 -0.0805
    1CHOL    C132639  19.547   6.705   5.750  0.0788 -0.1962  0.0103
    1CHOL    C232640  19.786   6.925   5.632  0.0322  0.0033 -0.7197
    1CHOL   ROH32641  13.279   7.245   4.582  0.0637 -0.0147  0.0688
    1CHOL    R132642  13.315   7.327   4.851  0.0380  0.0338  0.0589
    1CHOL    R232643  13.294   7.152   5.064 -0.0732  0.0869  0.1010
    1CHOL    R332644  13.542   7.245   5.124 -0.0495  0.0072  0.1212
    1CHOL    R432645  13.454   7.106   5.366 -0.0697 -0.0227  0.0817
    1CHOL    R532646  13.527   7.311   5.354 -0.0195 -0.0458  0.1323
    1CHOL    C132647  13.781   7.166   5.599 -0.0453 -0.1612  0.0894
    1CHOL    C232648  13.735   6.905   5.900 -0.1016 -0.2422 -0.2540
    1CHOL   ROH32649  21.232  15.896   2.638  0.1237  0.0128 -0.0281
    1CHOL    R132650  21.348  15.887   2.896  0.2262 -0.0187 -0.0741
    1CHOL    R232651  21.621  15.911   2.939  0.2194  0.2543 -0.1560
    1CHOL    R332652  21.544  16.110   3.106  0.0568  0.0695 -0.0093
    1CHOL    R432653  21.803  16.023   3.210  0.2360  0.3518 -0.2081
    1CHOL    R532654  21.617  16.039   3.322  0.2790  0.0524 -0.0894
    1CHOL    C132655  21.837  16.275   3.525  0.0932  0.2350 -0.1007
    1CHOL    C232656  21.631  16.272   3.841  0.0673 -0.1165  0.1362
    1CHOL   ROH32657  12.355  10.442   4.251 -0.1503 -0.0759 -0.0149
    1CHOL    R132658  12.433  10.664   4.409 -0.1133 -0.1227  0.0318
    1CHOL    R232659  12.446  10.652   4.684  0.0272 -0.2278  0.0202
    1CHOL    R332660  12.700  10.740   4.644 -0.0087 -0.1624 -0.0722
    1CHOL    R432661  12.643  10.804   4.925  0.0751 -0.1790 -0.0489
    1CHOL    R532662  12.714  10.942   4.772 -0.0153 -0.1586 -0.0755
    1CHOL    C132663  12.996  10.975   5.027  0.0694 -0.0891 -0.1759
    1CHOL    C232664  12.997  11.068   5.386  0.1483 -0.4737  0.1658
    1CHOL   ROH32665   9.926  14.330   6.521  0.0725  0.1453  0.0492
    1CHOL    R132666   9.951  14.388   6.245  0.0885  0.1102  0.0421
    1CHOL    R232667  10.104  14.234   6.073  0.1248  0.1021  0.0720
    1CHOL    R332668   9.872  14.222   5.931  0.1348  0.0539  0.0622
    1CHOL    R432669  10.083  14.245   5.729  0.1185  0.2097  0.0763
    1CHOL    R532670   9.907  14.372   5.748  0.0698  0.1260  0.1147
    1CHOL    C132671   9.853  14.240   5.394  0.1243  0.2271  0.0697
    1CHOL    C232672   9.872  14.090   5.061  0.4720  0.0082  0.4242
    1CHOL   ROH32673  10.147  17.941   2.854 -0.1046  0.2883 -0.1545
    1CHOL    R132674   9.956  17.923   3.062 -0.2286  0.4781 -0.2496
    1CHOL    R232675  10.016  17.820   3.311 -0.6148 -0.2502 -0.4304
    1CHOL    R332676   9.918  18.058   3.398  0.1346 -0.0733  0.0262
    1CHOL    R432677   9.847  17.865   3.609 -0.6206 -0.3225 -0.4217
    1CHOL    R532678   9.711  18.000   3.505 -0.1318  0.3819 -0.2182
    1CHOL    C132679   9.657  18.115   3.864  0.0796 -0.1986  0.0120
    1CHOL    C232680   9.654  18.231   4.139 -0.1831  0.1497 -0.1498
    1CHOL   ROH32681   2.940  19.465   4.488 -0.0498 -0.0138 -0.1593
    1CHOL    R132682   3.092  19.311   4.305 -0.0427 -0.0427 -0.1289
    1CHOL    R232683   3.080  19.035   4.296 -0.0378 -0.0448 -0.0814
    1CHOL    R332684   3.024  19.079   4.034 -0.0321 -0.0908 -0.0904
    1CHOL    R432685   3.141  18.810   4.041  0.0087 -0.0715 -0.0468
    1CHOL    R532686   3.206  18.976   3.917 -0.0111 -0.0796 -0.0674
    1CHOL    C132687   3.124  18.720   3.646  0.0412 -0.1305 -0.0351
    1CHOL    C232688   3.131  18.439   3.415  0.0241 -0.0137  0.0807
    1CHOL   ROH32689  16.464   9.408   6.397  0.1377  0.0024 -0.0223
    1CHOL    R132690  16.457   9.274   6.147  0.1431  0.0312 -0.0384
    1CHOL    R232691  16.303   9.362   5.935  0.0509 -0.0126  0.0062
    1CHOL    R332692  16.540   9.355   5.802  0.0262  0.1171 -0.0459
    1CHOL    R432693  16.340   9.399   5.594 -0.0435 -0.0597 -0.0092
    1CHOL    R532694  16.490   9.242   5.597  0.0594  0.0430 -0.0102
    1CHOL    C132695  16.583   9.413   5.270 -0.1219  0.0346 -0.0670
    1CHOL    C232696  16.827   9.430   4.868  0.1064 -0.1302 -0.0988
    1CHOL   ROH32697  21.840  22.741   5.795 -0.2799  0.1735  0.1323
    1CHOL    R132698  22.046  22.728   5.602 -0.2685 -0.0458  0.1587
    1CHOL    R232699  22.004  22.788   5.335 -0.1683  0.0130  0.1661
    1CHOL    R332700  22.210  22.960   5.374  0.0270 -0.2173  0.1862
    1CHOL    R432701  22.226  22.888   5.090 -0.4660  0.2716 -0.0072
    1CHOL    R532702  22.387  22.874   5.237 -0.2410 -0.1290 -0.2525
    1CHOL    C132703  22.549  23.108   4.984 -0.4558  0.2059 -0.0892
    1CHOL    C232704  22.876  23.380   5.126  0.3719  0.0203 -0.0403
    1CHOL   ROH32705  13.666  12.401   3.341 -0.1462  0.0602  0.0170
    1CHOL    R132706  13.662  12.560   3.575  0.0890  0.0611  0.0205
    1CHOL    R232707  13.552  12.473   3.812  0.1467  0.1440  0.0656
    1CHOL    R332708  13.796  12.537   3.913  0.2408 -0.0324 -0.0409
    1CHOL    R432709  13.612  12.555   4.142  0.2909  0.2618  0.0118
    1CHOL    R532710  13.750  12.710   4.072  0.4298  0.1065 -0.1166
    1CHOL    C132711  13.877  12.663   4.429  0.4631  0.1648 -0.1195
    1CHOL    C232712  13.395  12.670   4.609 -0.0755  0.1485  0.0830
    1CHOL   ROH32713  13.902   9.992   7.013 -0.1750 -0.1458 -0.1156
    1CHOL    R132714  13.881   9.908   6.743 -0.1693 -0.0557 -0.1446
    1CHOL    R232715  13.638   9.865   6.619 -0.1680 -0.0602 -0.1514
    1CHOL    R332716  13.737  10.040   6.436 -0.2076  0.0250 -0.0915
    1CHOL    R432717  13.540   9.881   6.288 -0.0746 -0.0501 -0.1787
    1CHOL    R532718  13.749   9.913   6.233 -0.0783  0.0710 -0.1109
    1CHOL    C132719  13.576  10.054   5.924 -0.0574  0.0358 -0.1383
    1CHOL    C232720  13.480  10.023   5.539 -0.0406 -0.0628 -0.0641
    1CHOL   ROH32721  19.776  13.543   6.141 -0.0691  0.0973 -0.0614
    1CHOL    R132722  19.851  13.390   5.915  0.0722  0.1615 -0.0594
    1CHOL    R232723  19.666  13.291   5.735  0.1410 -0.1713  0.0455
    1CHOL    R332724  19.822  13.420   5.554 -0.1404  0.0379 -0.0552
    1CHOL    R432725  19.656  13.240   5.393  0.0981 -0.3027  0.0659
    1CHOL    R532726  19.873  13.254   5.389  0.0813  0.0648 -0.0174
    1CHOL    C132727  19.797  13.332   5.024 -0.1909 -0.1830 -0.0168
    1CHOL    C232728  19.857  13.142   4.709  0.1352  0.4983 -0.0199
    1CHOL   ROH32729  14.069  20.395   2.842 -0.2359  0.0423 -0.0903
    1CHOL    R132730  14.174  20.432   3.102 -0.1734  0.0999 -0.1212
    1CHOL    R232731  14.056  20.600   3.288 -0.1587  0.1130 -0.1067
    1CHOL    R332732  14.060  20.377   3.443 -0.0807  0.1293 -0.0891
    1CHOL    R432733  14.017  20.597   3.631 -0.1241  0.1070 -0.1043
    1CHOL    R532734  14.172  20.445   3.643 -0.0891  0.1616 -0.1068
    1CHOL    C132735  13.998  20.386   3.977 -0.0309  0.1186 -0.0864
    1CHOL    C232736  13.950  20.277   4.377 -0.0815 -0.0413 -0.3492
    1CHOL   ROH32737  15.083  22.380   6.151  0.1078  0.1229  0.0790
    1CHOL    R132738  15.093  22.305   5.878  0.0535 -0.1479  0.1486
    1CHOL    R232739  15.114  22.489   5.674 -0.3077 -0.3261 -0.0598
    1CHOL    R332740  15.329  22.339   5.603 -0.1426 -0.1143 -0.0177
    1CHOL    R432741  15.202  22.411   5.349 -0.1226 -0.1807 -0.0458
    1CHOL    R532742  15.253  22.210   5.416  0.0404 -0.1489 -0.0701
    1CHOL    C132743  15.456  22.225   5.094  0.1402  0.1027  0.0018
    1CHOL    C232744  15.357  21.996   4.852  0.0586  0.1738  0.2512
    1CHOL   ROH32745  12.690   5.637   6.544 -0.0637 -0.1203  0.0895
    1CHOL    R132746  12.500   5.838   6.484  0.1780  0.1085  0.0693
    1CHOL    R232747  12.552   6.044   6.307  0.2775 -0.2284 -0.3117
    1CHOL    R332748  12.324   5.955   6.188 -0.0448 -0.0443  0.1396
    1CHOL    R432749  12.377   6.215   6.063  0.1437 -0.2628 -0.2408
    1CHOL    R532750  12.191   6.152   6.159  0.1929  0.1141  0.1219
    1CHOL    C132751  12.061   6.232   5.809 -0.2369 -0.1100  0.2242
    1CHOL    C232752  12.079   6.264   5.286 -0.0042 -0.0187 -0.3578
    1CHOL   ROH32753  13.213   7.726   4.485  0.1456 -0.0297 -0.1080
    1CHOL    R132754  13.332   7.853   4.708  0.0187  0.0469 -0.0821
    1CHOL    R232755  13.228   7.832   4.963 -0.0030 -0.0500 -0.0967
    1CHOL    R332756  13.479   7.747   5.024  0.0548  0.1360 -0.0693
    1CHOL    R432757  13.354   7.799   5.284 -0.0268 -0.0006 -0.0824
    1CHOL    R532758  13.543   7.880   5.213 -0.0779  0.1576 -0.0394
    1CHOL    C132759  13.663   7.699   5.527  0.0137  0.2028 -0.0483
    1CHOL    C232760  13.547   7.641   5.836 -0.0940 -0.0927  0.0747
    1CHOL   ROH32761  13.279  19.778   2.982  0.0409  0.1519 -0.0379
    1CHOL    R132762  13.395  19.852   3.230  0.1400  0.0688 -0.0569
    1CHOL    R232763  13.250  19.974   3.432  0.2881  0.2880 -0.0696
    1CHOL    R332764  13.345  19.767   3.580  0.0484  0.1994 -0.0400
    1CHOL    R432765  13.194  19.930   3.770  0.1748  0.3468 -0.0820
    1CHOL    R532766  13.400  19.865   3.791  0.0990  0.1437 -0.0339
    1CHOL    C132767  13.250  19.710   4.106 -0.1162  0.2976 -0.0613
    1CHOL    C232768  13.071  19.791   4.417 -0.0060  0.1065 -0.0898
    1CHOL   ROH32769  12.344  15.428   6.558 -0.0146  0.2794  0.0527
    1CHOL    R132770  12.239  15.533   6.317  0.2798  0.3002 -0.0721
    1CHOL    R232771  12.394  15.576   6.092  0.4556 -0.1943 -0.0601
    1CHOL    R332772  12.205  15.422   5.972  0.1815  0.0784  0.0083
    1CHOL    R432773  12.364  15.531   5.751  0.3181 -0.2300 -0.0435
    1CHOL    R532774  12.147  15.542   5.774  0.3386  0.1243 -0.0079
    1CHOL    C132775  12.169  15.359   5.439 -0.0191  0.0053  0.0304
    1CHOL    C232776  12.316  15.257   5.102  0.1457 -0.2217 -0.0185
    1CHOL   ROH32777  27.270  19.047   3.367 -0.2682 -0.0194  0.0092
    1CHOL    R132778  27.242  18.902   3.608 -0.1421 -0.0699 -0.0063
    1CHOL    R232779  27.038  18.721   3.650 -0.0939 -0.1090  0.0456
    1CHOL    R332780  27.243  18.552   3.708 -0.0434 -0.0895 -0.0709
    1CHOL    R432781  27.002  18.385   3.722  0.0063 -0.1887 -0.2609
    1CHOL    R532782  27.154  18.407   3.877 -0.0256 -0.2726 -0.2121
    1CHOL    C132783  27.174  18.031   3.818  0.1121 -0.2171 -0.5488
    1CHOL    C232784  27.426  17.743   4.019 -0.1860 -0.0851 -0.1747
    1CHOL   ROH32785  14.901   9.356   6.946 -0.2226  0.2959  0.1297
    1CHOL    R132786  14.988   9.298   6.683 -0.0221  0.2100  0.2133
    1CHOL    R232787  14.813   9.241   6.478  0.1450 -0.1659  0.1662
    1CHOL    R332788  14.945   9.443   6.352 -0.0498 -0.0870  0.0841
    1CHOL    R432789  14.801   9.304   6.138 -0.0290 -0.2201  0.1608
    1CHOL    R532790  15.015   9.349   6.144 -0.0601 -0.0638  0.0718
    1CHOL    C132791  14.918   9.531   5.823 -0.3134 -0.1776  0.0807
    1CHOL    C232792  14.723   9.381   5.485 -0.0718 -0.1941  0.0988
    1CHOL   ROH32793  22.348  16.397   5.634  0.0532  0.0765  0.1297
    1CHOL    R132794  22.277  16.519   5.389  0.0024 -0.0161  0.0982
    1CHOL    R232795  22.159  16.768   5.376  0.0275 -0.0091  0.0283
    1CHOL    R332796  22.366  16.823   5.210 -0.0109 -0.0989 -0.0512
    1CHOL    R432797  22.169  17.033   5.155  0.1132  0.0671  0.1217
    1CHOL    R532798  22.262  16.901   5.009 -0.0527  0.0516  0.0265
    1CHOL    C132799  22.370  17.240   4.870  0.1270  0.0273  0.1014
    1CHOL    C232800  22.261  17.324   4.514 -0.2467 -0.0002 -0.3288
    1CHOL   ROH32801  21.338  12.378   2.532 -0.0823  0.1824 -0.1145
    1CHOL    R132802  21.311  12.417   2.812  0.0739  0.1724 -0.0993
    1CHOL    R232803  21.246  12.211   2.985  0.0372  0.2019 -0.0969
    1CHOL    R332804  21.473  12.292   3.112  0.1415  0.0532 -0.1802
    1CHOL    R432805  21.286  12.226   3.328  0.1888  0.0702 -0.1058
    1CHOL    R532806  21.394  12.413   3.303  0.2748  0.0373 -0.1015
    1CHOL    C132807  21.522  12.310   3.647  0.3751 -0.1459 -0.1892
    1CHOL    C232808  21.725  12.352   3.991  0.3047  0.0606 -0.0528
    1CHOL   ROH32809   7.574   6.087   4.313 -0.1342 -0.1845 -0.0131
    1CHOL    R132810   7.621   5.835   4.432  0.1758 -0.1364 -0.0257
    1CHOL    R232811   7.875   5.741   4.487  0.2906  0.2341  0.1036
    1CHOL    R332812   7.776   5.712   4.738  0.1893  0.0482  0.0434
    1CHOL    R432813   8.003   5.527   4.727  0.3963  0.2914  0.0990
    1CHOL    R532814   7.799   5.478   4.784  0.4148  0.0546 -0.0219
    1CHOL    C132815   7.983   5.375   5.102  0.3627  0.1502  0.0397
    1CHOL    C232816   7.897   5.131   5.358 -0.0760  0.1828 -0.2631
    1CHOL   ROH32817  27.850  28.060   3.269 -0.1114  0.1220 -0.0540
    1CHOL    R132818  27.776  28.112   3.537 -0.1173  0.2678 -0.0821
    1CHOL    R232819  27.930  28.036   3.752 -0.3682 -0.0957 -0.0115
    1CHOL    R332820  27.912  28.300   3.818  0.1820 -0.0464 -0.0131
    1CHOL    R432821  28.000  28.167   4.064 -0.3200 -0.2674  0.0491
    1CHOL    R532822  27.827  28.299   4.042 -0.0042  0.1342 -0.0839
    1CHOL    C132823  28.024  28.490   4.308  0.2246 -0.3212  0.0829
    1CHOL    C232824  28.223  28.478   4.759  0.1220  0.2636 -0.0019
    1CHOL   ROH32825   0.548  12.361   5.244 -0.1327 -0.0013 -0.1756
    1CHOL    R132826   0.716  12.278   5.031 -0.0473  0.0237 -0.1186
    1CHOL    R232827   0.908  12.081   5.061 -0.1043 -0.0260 -0.0819
    1CHOL    R332828   0.779  11.969   4.849 -0.0256  0.0621 -0.1772
    1CHOL    R432829   1.064  11.919   4.799 -0.0175 -0.1446  0.0424
    1CHOL    R532830   0.923  12.014   4.663  0.1525 -0.0441 -0.0699
    1CHOL    C132831   1.034  11.719   4.448  0.1069 -0.1310  0.0253
    1CHOL    C232832   1.333  11.449   4.179 -0.0033  0.2565  0.3530
    1W        W32833   9.106   9.511   8.743  0.1216  0.3106 -0.0116
    1W        W32834  28.204  29.088   8.600 -0.1622  0.1146  0.2791
    1W        W32835  30.099   6.601   2.082  0.4283 -0.2436  0.0128
    1W        W32836   4.873  16.410   0.194 -0.2881  0.0281 -0.2496
    1W        W32837  12.342   1.756   0.773 -0.1621 -0.0529 -0.5697
    1W        W32838   5.755  21.176   8.188 -0.1540 -0.0032  0.0325
    1W        W32839  14.543  19.411   1.199 -0.1058 -0.1245  0.0825
    1W        W32840   0.310   8.700   9.026 -0.0374  0.0126  0.0969
    1W        W32841  11.492  12.720   8.388 -0.1357  0.0021  0.1522
    1W        W32842  26.222   9.986   0.109 -0.0376  0.0918  0.0566
    1W        W32843   7.699  12.504   0.621  0.0823 -0.0998  0.0560
    1W        W32844  18.305  18.971   6.953  0.0285  0.0054 -0.1747
    1W        W32845   5.267   2.477   2.049  0.3786  0.2436  0.1962
    1W        W32846  28.298   0.184   2.985  0.0655 -0.0739 -0.1351
    1W        W32847  26.752   8.926   2.849 -0.0695 -0.1248 -0.3930
    1W        W32848   4.131  10.551   1.544  0.0569  0.0485 -0.0846
    1W        W32849  24.539  15.966   5.669 -0.0704 -0.0303  0.2640
    1W        W32850  19.463  30.041   9.388 -0.1440 -0.0927 -0.5344
    1W        W32851  26.060  29.016   1.093  0.3477 -0.1804 -0.3024
    1W        W32852  11.121  29.093   8.658 -0.1030 -0.5705  0.0305
    1W        W32853   8.284   2.880   0.406  0.0884 -0.3945  0.0904
    1W        W32854   9.677   8.684   0.687 -0.0242  0.3679  0.0717
    1W        W32855  23.666   0.743   7.572 -0.4496 -0.1931  0.0817
    1W        W32856   7.529  22.325   1.244  0.1202 -0.5485  0.4044
    1W        W32857   0.838  18.355   6.863  0.2723 -0.1251 -0.2908
    1W        W32858  13.197  16.128   1.680 -0.0653 -0.0860  0.1320
    1W        W32859   5.847  25.606   0.418  0.0251 -0.2048 -0.0448
    1W        W32860  15.894  16.048   8.745  0.0282  0.0702 -0.2156
    1W        W32861  11.678  18.612   7.100  0.1129 -0.1378  0.1030
    1W        W32862  18.413  10.349   8.737  0.2366 -0.1838 -0.1475
    1W        W32863  22.307  25.708   1.117  0.1141 -0.1104 -0.1057
    1W        W32864   8.202  18.765   7.331  0.1895 -0.0859 -0.1062
    1W        W32865  12.747   5.553   8.557  0.3410 -0.0175 -0.0288
    1W        W32866  22.538   4.689   2.100  0.1567 -0.1314  0.0209
    1W        W32867   3.027  10.907   6.327 -0.0562 -0.2719 -0.1958
    1W        W32868  27.223   2.648   7.917 -0.0108 -0.2193 -0.5486
    1W        W32869   7.389  27.473   2.817 -0.2031  0.1013 -0.1003
    1W        W32870  11.237  17.885   1.641  0.1125 -0.3322 -0.1370
    1W        W32871  24.712  22.057   1.131 -0.1524  0.1047  0.1504
    1W        W32872  27.145   8.050   9.251  0.0859 -0.1710 -0.2549
    1W        W32873   7.673  15.112   7.163  0.0550  0.1050  0.0738
    1W        W32874   4.363  26.121   7.721 -0.0583 -0.1797  0.0395
    1W        W32875  13.531  19.681   8.421 -0.2521 -0.3041  0.4103
    1W        W32876  20.265  12.868   9.387  0.1079 -0.0768  0.1591
    1W        W32877  21.407  27.309   2.865  0.2324 -0.1047 -0.0805
    1W        W32878  21.933  12.423   7.602 -0.0585  0.2394 -0.0707
    1W        W32879  14.819  10.374   8.118 -0.1937  0.0847  0.0675
    1W        W32880  24.201  24.227   6.575 -0.1091 -0.2051  0.1827
    1W        W32881   4.933  15.764   8.757  0.0686  0.0621  0.1890
    1W        W32882   6.254  27.505   7.776 -0.0364 -0.0076 -0.1590
    1W        W32883  20.694   7.543   0.357  0.0277 -0.0049 -0.0510
    1W        W32884  21.545  18.879   1.730 -0.1188  0.0465 -0.0958
    1W        W32885  10.417   8.561   3.292  0.4101  0.1924  0.1430
    1W        W32886   1.800   6.778   6.174  0.1259 -0.0779 -0.1048
    1W        W32887  16.548  26.087   8.130 -0.0747 -0.0041 -0.1435
    1W        W32888   0.390   2.825   9.395  0.0019  0.3984 -0.3058
    1W        W32889  30.100  17.380   8.128  0.1124  0.2085 -0.2756
    1W        W32890  11.902  23.501   5.697  0.2025 -0.0849  0.0477
    1W        W32891  16.452  27.245   7.867 -0.3016 -0.1490 -0.0583
    1W        W32892   8.890  23.165   8.827  0.0449 -0.2652  0.0664
    1W        W32893  13.012  24.590   7.714  0.0114 -0.0731 -0.0292
    1W        W32894   1.386  12.587   9.246  0.0788  0.0599  0.1172
    1W        W32895   0.123  18.225   1.128  0.0153  0.1467 -0.0062
    1W        W32896   7.105  21.034   0.888 -0.2843  0.0311  0.2433
    1W        W32897   1.482  14.717   8.221 -0.2231 -0.0040 -0.0110
    1W        W32898  10.134  13.614   1.887 -0.4003 -0.2143 -0.0381
    1W        W32899  14.227  18.848   6.515 -0.0583  0.0659  0.0232
    1W        W32900  16.944   0.717   2.681 -0.0451  0.0347 -0.2087
    1W        W32901  26.125   6.274   7.166 -0.0622 -0.0826 -0.1062
    1W        W32902  21.971   7.227   2.025  0.2188  0.2147 -0.2039
    1W        W32903  11.896  19.224   7.939 -0.2813 -0.0162  0.1789
    1W        W32904  22.573  11.492   7.872  0.1491 -0.0754  0.0273
    1W        W32905  19.885   8.457   0.996  0.2315  0.0731 -0.1572
    1W        W32906   1.428  27.389   0.480  0.0943  0.1706 -0.3365
    1W        W32907   0.377  14.197   5.638 -0.0449 -0.3002  0.0070
    1W        W32908  21.032  12.992   1.835  0.0436  0.0168  0.0888
    1W        W32909  12.230  10.362   0.110 -0.0088 -0.1987 -0.0558
    1W        W32910   0.711   6.732   6.842 -0.0240 -0.0091  0.2947
    1W        W32911  25.779  11.896   7.004  0.2163  0.2999  0.2127
    1W        W32912   2.679  20.914   7.046 -0.2325 -0.2833  0.0349
    1W        W32913  11.552  21.143   8.149 -0.2293 -0.0441  0.0123
    1W        W32914   0.545  24.651   9.334  0.1506  0.0541  0.0340
    1W        W32915   1.962  10.772   2.292 -0.1783  0.1873  0.1660
    1W        W32916  22.611   4.922   8.433  0.4785  0.0373  0.1639
    1W        W32917  22.046   3.673   7.014  0.1041  0.1999 -0.2303
    1W        W32918  20.043  10.379   8.790  0.1145  0.0222  0.0281
    1W        W32919   6.614  15.111   0.075  0.1132 -0.0157 -0.1737
    1W        W32920   9.240  15.109   0.262  0.2304  0.2845  0.0615
    1W        W32921   8.344  19.501   7.582 -0.0494 -0.3736 -0.0539
    1W        W32922  27.105  26.790   2.079  0.3991 -0.1294 -0.0988
    1W        W32923  14.799   5.213   1.126 -0.3498  0.2156  0.0852
    1W        W32924  27.251  24.332   1.019  0.2530  0.3710  0.0396
    1W        W32925   3.026   4.634   3.051 -0.1620 -0.0688 -0.0307
    1W        W32926  17.058  12.899   8.491  0.2500 -0.1858 -0.2313
    1W        W32927  20.342   1.646   2.501  0.0333  0.0012 -0.3205
    1W        W32928  21.507  19.402   2.083 -0.4670  0.2421  0.1597
    1W        W32929  11.056   3.569   7.201  0.2531  0.0620  0.0958
    1W        W32930  11.109  26.871   6.232  0.2581  0.0397  0.2017
    1W        W32931  19.740   6.802   8.641  0.2729  0.0991 -0.0346
    1W        W32932   8.218  16.787   0.020 -0.0344  0.0063 -0.1009
    1W        W32933   9.715  10.030   8.129 -0.1750 -0.1422  0.1450
    1W        W32934  21.431   0.371   9.271  0.3062 -0.3357 -0.3969
    1W        W32935  22.156   8.977   9.277  0.0168 -0.4060  0.1457
    1W        W32936   4.379  13.551   8.855  0.0915 -0.2247  0.2133
    1W        W32937   3.124   9.436   1.541  0.0763 -0.0837  0.1293
    1W        W32938  15.483   4.427   0.634 -0.0840 -0.0547  0.2132
    1W        W32939  28.701  12.092   7.180 -0.1270 -0.1217  0.2261
    1W        W32940  20.187  21.007   1.899 -0.1463 -0.1691 -0.2921
    1W        W32941   6.181  28.836   8.719 -0.1163  0.2845  0.2712
    1W        W32942  21.999  10.732   1.292  0.0426 -0.3734 -0.1595
    1W        W32943   9.014  17.338   0.997  0.1000 -0.1320 -0.0094
    1W        W32944  24.967  24.779   1.503  0.1925  0.1982 -0.0303
    1W        W32945  20.163  19.334   7.985 -0.1087  0.2935 -0.1065
    1W        W32946   9.489  26.383   2.456 -0.0497 -0.0891 -0.0345
    1W        W32947  13.022   1.439   9.352  0.0653 -0.4336  0.1205
    1W        W32948  28.501  13.511   9.386 -0.2245 -0.1360 -0.0314
    1W        W32949  10.965  13.330   1.977 -0.1850 -0.0568  0.0874
    1W        W32950  13.687   4.248   7.525  0.0282 -0.0597 -0.0303
    1W        W32951   0.847  16.180   1.174 -0.4889 -0.1316  0.0822
    1W        W32952   1.070  27.204   1.111 -0.0865 -0.2672  0.0927
    1W        W32953  10.836   9.952   2.586 -0.3326 -0.0695 -0.0349
    1W        W32954   4.409   7.788   7.120  0.2338 -0.1413  0.1584
    1W        W32955   7.059  20.239   1.651 -0.3061 -0.1177 -0.3602
    1W        W32956   5.836  16.792   9.307 -0.3001  0.0765 -0.0318
    1W        W32957   1.200   5.221   0.638 -0.2236 -0.0386  0.0155
    1W        W32958   9.579  30.112   6.806  0.1109  0.1721  0.0628
    1W        W32959   5.728   6.985   9.068 -0.1985  0.0570 -0.2571
    1W        W32960   2.909   4.407   0.034  0.3008  0.0482  0.0780
    1W        W32961  20.576  29.938   2.314 -0.0835  0.0732 -0.1019
    1W        W32962  29.789  29.726   3.059  0.0198  0.1467  0.0679
    1W        W32963  19.458   0.734   2.693 -0.2413 -0.0456  0.0858
    1W        W32964  27.446   7.147   8.857  0.3324  0.1952 -0.0507
    1W        W32965  24.567  19.354   7.898  0.0659  0.1349  0.0411
    1W        W32966  18.151  29.275   2.455  0.2857  0.0334  0.1168
    1W        W32967  18.000  12.074   8.531  0.1324 -0.1776  0.0836
    1W        W32968   8.176   4.319   0.261 -0.1551  0.2161 -0.1385
    1W        W32969  24.882   6.692   8.556  0.0855  0.0221 -0.4783
    1W        W32970  15.174   5.151   1.632  0.0462 -0.1005 -0.1555
    1W        W32971  11.710   8.196   2.543 -0.0389 -0.0311 -0.0517
    1W        W32972  29.246   8.363   9.170  0.1404  0.1092  0.4571
    1W        W32973  18.613  28.865   7.492  0.4949  0.2202 -0.1356
    1W        W32974  19.288  27.207   2.360  0.1589 -0.2094  0.2187
    1W        W32975   9.563   9.439   1.134 -0.0196 -0.0488  0.2267
    1W        W32976   9.820  12.568   1.945 -0.1955  0.0058 -0.1591
    1W        W32977  21.082  15.534   1.890 -0.3251  0.1310 -0.1756
    1W        W32978   6.636  14.685   7.464 -0.0724 -0.1381  0.1561
    1W        W32979  23.605  23.197   1.470  0.0187 -0.2416  0.2000
    1W        W32980  21.529   7.429   8.340 -0.1149  0.0107  0.1528
    1W        W32981  24.740   4.089   0.918  0.1478  0.0182 -0.0313
    1W        W32982  25.107   7.852   7.845  0.1087  0.1967  0.0201
    1W        W32983   3.127   0.311   1.201  0.0011 -0.3632 -0.1524
    1W        W32984   5.217   4.893   9.003 -0.2819 -0.4142 -0.2285
    1W        W32985   3.072   1.950   9.265  0.2783 -0.1122  0.2016
    1W        W32986  22.195  28.761   7.243  0.1389  0.0502 -0.2956
    1W        W32987  23.487  12.553   8.482 -0.0840  0.3878 -0.0172
    1W        W32988  10.189  13.304   8.475 -0.1073  0.3400 -0.0325
    1W        W32989  27.329   2.880   2.698  0.0557 -0.1043 -0.2090
    1W        W32990   1.204   2.770   2.154  0.2906 -0.0547 -0.2216
    1W        W32991  26.332   1.587   6.764  0.1977 -0.1679 -0.2073
    1W        W32992  15.688  25.311   0.572  0.2209 -0.1355 -0.0991
    1W        W32993  21.497  12.465   0.699  0.3922 -0.0152  0.2796
    1W        W32994   9.720   3.763   1.290  0.0026 -0.0383  0.1663
    1W        W32995  26.058  20.555   0.496 -0.3263  0.0044 -0.0672
    1W        W32996   9.825  16.761   1.976  0.1889 -0.2369  0.2223
    1W        W32997   2.195   9.308   1.333 -0.1690 -0.0334  0.1552
    1W        W32998  11.739   8.446   8.224 -0.2081  0.2417 -0.3452
    1W        W32999   1.202   1.836   6.191 -0.1155 -0.0723 -0.2101
    1W        W33000  16.895  29.145   2.577  0.0178  0.3047  0.1048
    1W        W33001   3.553   7.280   2.590 -0.0240  0.2482  0.3128
    1W        W33002  20.930   2.624   7.363 -0.1571 -0.0535 -0.1422
    1W        W33003  14.699  24.039   1.301 -0.4134  0.1329 -0.4553
    1W        W33004   2.275  14.039   8.316  0.1375 -0.0216 -0.1421
    1W        W33005  29.867  20.569   8.940  0.1984 -0.3031 -0.2079
    1W        W33006   0.304  27.982   7.988 -0.0199 -0.0495  0.2269
    1W        W33007  17.409  25.130   1.801  0.0868 -0.2723 -0.1653
    1W        W33008  20.258  16.472   7.150  0.1612 -0.0555 -0.3207
    1W        W33009  24.584  10.084   9.130  0.0139  0.3060  0.0076
    1W        W33010  18.498  10.538   7.046  0.3310 -0.0470 -0.0007
    1W        W33011  14.163  27.218   7.460  0.0375 -0.5064 -0.0097
    1W        W33012   5.036   9.225   1.435  0.0029 -0.1959  0.0776
    1W        W33013  28.666  24.728   8.411  0.2539 -0.1485  0.0576
    1W        W33014  10.814  11.790   8.416  0.0181 -0.0696  0.1143
    1W        W33015  19.943  23.826   0.641  0.1863  0.0990 -0.2042
    1W        W33016  25.140  29.856   0.031  0.0563  0.1085  0.1584
    1W        W33017  17.632  29.002   8.593 -0.1429  0.1770 -0.0095
    1W        W33018  24.640   7.411   9.038 -0.2462 -0.1286 -0.0978
    1W        W33019  22.864  19.140   9.324  0.0837 -0.1545  0.3666
    1W        W33020   2.256  22.104   7.690  0.0254 -0.4182  0.1066
    1W        W33021   5.767   0.087   3.493 -0.0332  0.1742 -0.0337
    1W        W33022   0.941  25.846   1.870 -0.4697  0.0368  0.1479
    1W        W33023   2.048   2.294   7.997 -0.0558  0.2525 -0.1155
    1W        W33024  27.582  17.196   0.048  0.0222 -0.0634 -0.3231
    1W        W33025   0.000   9.592   8.521  0.1168 -0.1617 -0.2954
    1W        W33026   3.427  21.822   2.330 -0.3215  0.2189 -0.2057
    1W        W33027   3.078   5.459   2.629 -0.0406 -0.1790 -0.3401
    1W        W33028   9.349  29.895   8.991  0.0650  0.0525  0.2108
    1W        W33029   5.450  23.846   8.087  0.0648 -0.2803  0.0799
    1W        W33030  20.430  27.025   3.306  0.0439  0.0699  0.0969
    1W        W33031  12.640   4.196   2.823  0.1529  0.1034 -0.1525
    1W        W33032  28.557  17.354   8.100 -0.2940  0.1819 -0.0912
    1W        W33033   3.148  26.041   0.176  0.0893 -0.2686  0.1634
    1W        W33034   6.365   5.204   2.488 -0.0499  0.0671 -0.1525
    1W        W33035  29.675  12.377   8.932 -0.0514 -0.2506  0.0374
    1W        W33036   8.691  15.673   0.869  0.0534 -0.1179 -0.0982
    1W        W33037  24.699  26.399   9.308 -0.1882  0.0845 -0.0973
    1W        W33038  26.952  22.010   6.492  0.0099  0.0712 -0.0006
    1W        W33039  17.565  26.290   3.218 -0.1743  0.0749 -0.3401
    1W        W33040  14.912  16.402   7.113  0.1543 -0.0714  0.1133
    1W        W33041  24.010  29.677   6.764  0.0669 -0.0711 -0.0973
    1W        W33042   5.725  21.869   9.323  0.1640 -0.3146 -0.1147
    1W        W33043  19.888  22.683   1.532  0.1832  0.1067 -0.2816
    1W        W33044  30.050   0.646   2.638  0.3365  0.1630 -0.1087
    1W        W33045  20.477  29.698   9.264 -0.1481  0.0663 -0.3671
    1W        W33046   1.221  15.816   1.022  0.2282 -0.0324 -0.0313
    1W        W33047  27.694  15.937   6.386 -0.0179  0.0150 -0.1383
    1W        W33048   4.568  17.100   9.036 -0.3782 -0.1377 -0.4696
    1W        W33049   7.693   1.310   0.695  0.0689 -0.0460 -0.2074
    1W        W33050   4.787  26.126   7.365 -0.0917 -0.2786  0.2947
    1W        W33051   9.771  26.954   6.463  0.1908  0.0450  0.1497
    1W        W33052  18.930   5.915   0.900 -0.3078 -0.0620  0.1059
    1W        W33053  19.476  18.673   6.993  0.1662 -0.1501 -0.0754
    1W        W33054   9.564  20.000   6.972  0.1260  0.1102 -0.0564
    1W        W33055   8.579   6.796   7.983  0.5305 -0.2687  0.0298
    1W        W33056   3.706  21.166   9.186  0.2963  0.0023 -0.0741
    1W        W33057   3.222  14.539   8.303  0.0968 -0.4321  0.2160
    1W        W33058  15.670   9.001   1.414 -0.2442 -0.0166  0.2750
    1W        W33059  14.322   7.601   3.579 -0.3425  0.1712  0.1997
    1W        W33060   7.123  15.044   6.817  0.1119  0.0162 -0.2351
    1W        W33061  13.259  11.826   0.673 -0.0101 -0.0609  0.0978
    1W        W33062  10.610   6.652   6.829  0.0588  0.0434  0.2044
    1W        W33063   2.009  13.411   9.318  0.0673  0.2463  0.0743
    1W        W33064  10.771   9.699   3.040  0.2531  0.1327 -0.1690
    1W        W33065  24.064  23.592   9.116 -0.1328 -0.0278  0.0603
    1W        W33066  15.494  22.876   2.348  0.1602  0.0563  0.0906
    1W        W33067  15.539  23.737   0.004  0.0181  0.2737 -0.1368
    1W        W33068   5.702   9.857   8.759  0.2621  0.2664  0.1042
    1W        W33069  12.478   2.642   1.034  0.0581 -0.1504  0.1588
    1W        W33070  17.036   4.539   0.743  0.0960  0.0646 -0.0208
    1W        W33071  15.557  13.149   1.589  0.0264 -0.5069 -0.2295
    1W        W33072  17.858  13.351   8.970 -0.2315  0.1971  0.1146
    1W        W33073  10.084   2.288   9.111  0.0471  0.3160 -0.0275
    1W        W33074  28.358  13.593   7.300  0.0029  0.0281 -0.0486
    1W        W33075  21.140   1.039   7.818 -0.0257  0.0138 -0.0631
    1W        W33076  28.307   3.717   7.159  0.0412  0.1071 -0.0824
    1W        W33077   7.341   1.293   7.997  0.0654  0.3698 -0.0616
    1W        W33078  18.973   7.971   8.748 -0.1170  0.0584 -0.0151
    1W        W33079   9.621  14.649   2.788  0.0706  0.3119  0.0690
    1W        W33080   1.873   8.080   9.076  0.4058  0.2875 -0.4221
    1W        W33081  18.716  19.436   7.748  0.1585  0.0974  0.2093
    1W        W33082  29.727  18.429   5.019  0.0093 -0.2613 -0.0420
    1W        W33083  27.736   1.926   8.096  0.1058 -0.0325  0.1070
    1W        W33084   4.018  22.732   9.278 -0.1206 -0.1261  0.2102
    1W        W33085  21.320  24.054   9.209  0.1768  0.0705  0.0052
    1W        W33086  25.516  27.381   7.917 -0.4946  0.2374 -0.2465
    1W        W33087   7.785   3.619   2.863 -0.1436 -0.2060  0.2703
    1W        W33088  27.963  17.064   5.596 -0.1451  0.1191 -0.3792
    1W        W33089   4.820  15.747   8.185 -0.0275 -0.1471  0.2303
    1W        W33090   9.696  11.856   8.347  0.2465 -0.1135  0.0918
    1W        W33091  18.523  23.121   2.569  0.1958  0.1796 -0.2621
    1W        W33092   4.890  19.107   7.309  0.1420 -0.2105  0.1435
    1W        W33093  26.481   2.387   1.353  0.1925 -0.0840  0.0783
    1W        W33094   7.244  16.585   0.031  0.0202 -0.1893 -0.2782
    1W        W33095  17.247  20.578   6.728 -0.0785 -0.1446  0.0714
    1W        W33096   7.558  21.716   0.920 -0.0904  0.1142 -0.3781
    1W        W33097  28.106   8.712   7.569 -0.1451  0.0206  0.1930
    1W        W33098  25.076   4.266   7.105 -0.1028  0.0353  0.1799
    1W        W33099  10.058  11.868   1.327  0.1821 -0.1025  0.1145
    1W        W33100  29.704  25.231   8.804  0.0367  0.1948 -0.1165
    1W        W33101  15.433  13.676   9.401 -0.0707  0.1891  0.2709
    1W        W33102  25.961  29.834   0.540  0.0865 -0.1247 -0.2434
    1W        W33103   2.848  17.306   0.654  0.1650 -0.1646  0.0031
    1W        W33104  21.002  24.859   3.109 -0.0331 -0.3270 -0.1851
    1W        W33105  19.593  22.230   7.490  0.0616 -0.1052 -0.4817
    1W        W33106  18.936  26.546   1.818 -0.2080  0.2079 -0.1803
    1W        W33107  26.252  27.866   8.590 -0.0879  0.2462 -0.4164
    1W        W33108  24.144  17.884   1.095 -0.0711 -0.1543 -0.1058
    1W        W33109  10.755  13.656   1.652  0.1727  0.2075 -0.2328
    1W        W33110  24.397   4.576   2.436 -0.4222 -0.0129 -0.2210
    1W        W33111  10.980  10.167   9.098 -0.4233 -0.0538 -0.4230
    1W        W33112   1.550  17.048   6.547 -0.4057 -0.0838 -0.1185
    1W        W33113   1.512  22.295   1.169  0.1703  0.0500 -0.2855
    1W        W33114  26.688  23.433   9.377  0.0916 -0.1396  0.0740
    1W        W33115  19.345  22.518   1.737 -0.2903 -0.0662 -0.3443
    1W        W33116   2.552   6.637   0.745  0.1398 -0.1519 -0.1994
    1W        W33117  22.189   6.854   2.780  0.0474 -0.0728  0.0485
    1W        W33118  24.464  16.040   9.350 -0.1536  0.1575  0.0135
    1W        W33119  11.261  26.449   7.382 -0.0365  0.0276  0.1963
    1W        W33120  16.471  14.979   0.074  0.2337  0.1902 -0.3001
    1W        W33121  13.364  13.591   7.731  0.2607 -0.0443 -0.1624
    1W        W33122   6.610   7.722   4.023 -0.1110  0.4481 -0.3305
    1W        W33123   5.500   8.513   8.816 -0.0651 -0.0296  0.0452
    1W        W33124  25.461  13.567   7.590 -0.1265 -0.3982  0.0701
    1W        W33125   3.216   8.547   6.159 -0.0437  0.1789  0.0852
    1W        W33126  24.429   7.732   8.735  0.3221  0.1164  0.1175
    1W        W33127   2.351  17.884   8.777 -0.0716  0.1209 -0.3377
    1W        W33128  26.962  18.282   6.487 -0.2415  0.0740  0.0706
    1W        W33129  24.415  12.256   2.035  0.2038  0.3536  0.3304
    1W        W33130  20.204  28.771   1.173 -0.0041  0.1115 -0.1736
    1W        W33131  23.848   8.587   8.135  0.2947 -0.0013 -0.0215
    1W        W33132  19.582  26.249   6.527 -0.0667 -0.2207  0.0706
    1W        W33133  23.116  11.198   1.768 -0.1152  0.2310 -0.0899
    1W        W33134  20.170  22.781   8.619 -0.0023  0.0396  0.1803
    1W        W33135   1.147  25.254   0.336 -0.0459  0.0276 -0.1163
    1W        W33136  26.373  28.990   3.071  0.0683  0.2475  0.0681
    1W        W33137  19.982   7.260   9.157  0.0924 -0.4572 -0.0939
    1W        W33138  25.791  11.706   1.092  0.2633  0.0588  0.4459
    1W        W33139  25.059   5.630   7.462  0.0470  0.0974  0.3206
    1W        W33140  29.472  21.335   6.920 -0.1726 -0.0028 -0.0396
    1W        W33141   3.208  19.135   4.829  0.1247  0.3665  0.0189
    1W        W33142  14.311   1.390   8.216 -0.0007 -0.1032  0.2042
    1W        W33143  10.351   8.893   8.759 -0.1805  0.0652 -0.0530
    1W        W33144  28.995  28.164   8.566 -0.0037  0.2805 -0.2742
    1W        W33145  16.451   5.038   2.656  0.3013  0.2190  0.0591
    1W        W33146  13.262   4.938   9.122 -0.4338  0.1770 -0.1260
    1W        W33147  26.297  25.754   0.126  0.3399 -0.0334 -0.0229
    1W        W33148  21.767  20.912   0.471  0.0616  0.1085  0.4071
    1W        W33149   7.080   0.941   2.854  0.2110 -0.1183 -0.3241
    1W        W33150   5.992  23.742   2.114  0.1246  0.2220  0.0076
    1W        W33151  24.238  26.996   1.901  0.2486  0.1008  0.1759
    1W        W33152  14.631   9.129   2.668 -0.0090  0.3031 -0.2688
    1W        W33153   4.287   5.207   8.763 -0.0854 -0.6086  0.0362
    1W        W33154   5.095   7.924   2.819  0.0509 -0.1453 -0.2449
    1W        W33155  21.260  23.225   0.671  0.0278  0.2616 -0.2628
    1W        W33156  10.770  16.233   8.768  0.0054 -0.1552  0.1811
    1W        W33157  25.951  26.345   1.911 -0.1969  0.0271 -0.0917
    1W        W33158  22.513   3.605   0.641  0.3227  0.0131 -0.0029
    1W        W33159   4.871  24.612   6.614  0.3400  0.1344 -0.0610
    1W        W33160  11.476  20.158   2.819  0.0419  0.1752  0.2549
    1W        W33161  17.974  28.501   2.772  0.1024 -0.2221  0.1318
    1W        W33162  23.695  21.527   0.146 -0.0121 -0.3654  0.0415
    1W        W33163  16.992  26.072   0.930  0.0111 -0.2005  0.1409
    1W        W33164  29.228  19.404   9.219 -0.2882  0.0914 -0.1132
    1W        W33165  24.345  27.802   0.115 -0.2926  0.0763  0.1082
    1W        W33166  16.090   3.887   8.555 -0.2819 -0.4518 -0.0599
    1W        W33167  25.977  26.208   7.099 -0.3620  0.0299 -0.0812
    1W        W33168   0.755  14.113   1.037  0.1724 -0.1085 -0.2137
    1W        W33169  21.712  12.228   7.145 -0.3004  0.3342 -0.0468
    1W        W33170  12.045   2.149   7.896  0.1109  0.0791 -0.2556
    1W        W33171  26.127   4.145   2.477  0.2825  0.0043  0.1911
    1W        W33172  11.296  11.447   1.638 -0.1481 -0.0170  0.1373
    1W        W33173   4.308  24.773   1.486  0.0928 -0.2513  0.0355
    1W        W33174   9.803  19.091   9.331 -0.0683  0.0641  0.2776
    1W        W33175  21.885  22.425   7.601  0.2430  0.4772 -0.1830
    1W        W33176   4.937   3.354   8.292 -0.0998  0.1945 -0.2369
    1W        W33177  28.461  16.441   9.316  0.0611 -0.2351 -0.1958
    1W        W33178  26.097  25.210   7.767 -0.3400  0.2648  0.0793
    1W        W33179   3.294  20.870   8.447 -0.1685  0.1286  0.1221
    1W        W33180  18.910  26.929   7.561  0.1472 -0.2388 -0.1011
    1W        W33181  14.744  15.332   6.970  0.0826 -0.2735  0.2233
    1W        W33182   8.562  16.228   2.494 -0.0418 -0.1039  0.3162
    1W        W33183  27.841  14.140   4.996  0.0003 -0.3022  0.0115
    1W        W33184  20.211  18.261   7.237 -0.0261 -0.0419  0.4153
    1W        W33185  29.986  26.774   3.026  0.1188 -0.1238 -0.0207
    1W        W33186   8.358   1.976   8.713 -0.2290  0.0424  0.3027
    1W        W33187  29.675   1.100   1.565  0.0490 -0.1205  0.3355
    1W        W33188   5.670   0.107   0.491 -0.0906  0.2556 -0.1945
    1W        W33189   8.115   7.804   9.037 -0.0481 -0.1977 -0.1165
    1W        W33190   6.272   1.348   7.094 -0.2255  0.2764 -0.0654
    1W        W33191  10.623  13.209   1.290  0.2631  0.1806 -0.0426
    1W        W33192  13.122   6.194   2.721  0.2432 -0.0275 -0.1287
    1W        W33193  23.552  27.446   0.888  0.1625  0.1720  0.1608
    1W        W33194  25.810   8.976   0.693  0.4343 -0.1479  0.0614
    1W        W33195  25.077   4.110   2.891  0.2082  0.2950 -0.0667
    1W        W33196  12.971   1.856   1.849  0.2454 -0.0145  0.2547
    1W        W33197  23.152  25.206   0.393  0.1258 -0.0099 -0.1304
    1W        W33198   3.066   7.329   7.288  0.2516 -0.0310  0.3164
    1W        W33199  28.113  17.650   1.010  0.0596  0.1140 -0.0663
    1W        W33200   4.282  10.093   8.331  0.1420 -0.1440 -0.0364
    1W        W33201  15.021   4.120   1.693 -0.3091  0.1214  0.0774
    1W        W33202   8.270   0.136   0.363 -0.0309 -0.0891  0.0148
    1W        W33203  25.375  23.907   2.346 -0.0007 -0.0582  0.2737
    1W        W33204  19.349   1.008   7.878 -0.2402  0.1184 -0.2660
    1W        W33205  23.417   4.064   2.796  0.0480 -0.0404  0.0425
    1W        W33206  23.599  29.294   1.874  0.3704 -0.3725  0.0664
    1W        W33207  26.551  22.144   6.193  0.2963 -0.2034  0.2312
    1W        W33208   9.561  19.236   0.796  0.3355 -0.1367  0.0016
    1W        W33209   5.073   0.660   3.097  0.0192 -0.3572 -0.1455
    1W        W33210  10.975  23.549   8.203  0.3887 -0.2144  0.0319
    1W        W33211   8.535  20.157   8.594 -0.3375 -0.0107 -0.1292
    1W        W33212  19.116  11.582   1.688 -0.0635 -0.1652 -0.0553
    1W        W33213  19.155  12.843   9.086  0.1503 -0.0699  0.0250
    1W        W33214  23.081   2.194   8.233  0.2861 -0.2192 -0.2572
    1W        W33215  17.704   3.715   8.589  0.1179  0.1054  0.0745
    1W        W33216  26.374  24.616   1.744  0.2905 -0.0959 -0.0666
    1W        W33217  28.633  14.755   6.206  0.0278 -0.1204 -0.2115
    1W        W33218  20.688   2.243   3.215 -0.0498 -0.1206  0.1026
    1W        W33219   0.658   5.732   6.915 -0.0069  0.1351  0.0328
    1W        W33220   4.539  18.838   7.549 -0.2489  0.0333  0.1239
    1W        W33221   8.460  15.683   8.873  0.2244  0.1008 -0.2588
    1W        W33222  10.384  15.809   0.105  0.0432 -0.0666  0.1209
    1W        W33223  21.559   6.098   2.173  0.3109 -0.0928  0.0741
    1W        W33224  13.070   0.685   8.893  0.1413 -0.0640  0.0781
    1W        W33225  12.207  27.592   1.326 -0.1603  0.1203  0.0321
    1W        W33226  25.620  13.616   8.436  0.3643  0.1713 -0.2864
    1W        W33227   5.440  22.160   1.332  0.2057 -0.0314 -0.0033
    1W        W33228   3.725  28.472   1.089  0.1904 -0.0629 -0.1475
    1W        W33229   5.849  23.401   6.976  0.0222  0.4144 -0.0491
    1W        W33230  22.066   9.496   1.753  0.0659 -0.1425  0.0813
    1W        W33231   6.158  16.728   1.442 -0.3733  0.0126  0.0482
    1W        W33232  26.998   8.178   8.370  0.1546 -0.0287 -0.1864
    1W        W33233   4.025  20.069   7.687  0.0056  0.1049  0.0566
    1W        W33234  29.128  15.491   0.943  0.0077  0.1301  0.2847
    1W        W33235  22.165  20.597   7.299 -0.1592 -0.0496  0.1398
    1W        W33236  20.694  28.038   7.266  0.2549  0.0505  0.3827
    1W        W33237  12.192  24.756   1.976  0.2470  0.1700 -0.3190
    1W        W33238  30.044   2.498   2.534 -0.0971 -0.1219 -0.2274
    1W        W33239  14.740  12.717   7.765  0.0341  0.1503  0.1197
    1W        W33240  14.308  20.197   1.159 -0.0617  0.0005  0.1405
    1W        W33241   8.264   8.671   1.616  0.1900 -0.1716 -0.1587
    1W        W33242  22.924  16.457   7.933 -0.1115  0.0225  0.0575
    1W        W33243   9.634  27.270   6.891 -0.4175 -0.1397  0.0457
    1W        W33244  27.986  28.616   6.880 -0.3006 -0.1100 -0.0311
    1W        W33245  26.890  28.232   6.205 -0.0056  0.0064  0.4746
    1W        W33246   9.479   1.375   7.412  0.0949  0.0770 -0.2743
    1W        W33247  16.222   5.920   3.235  0.2674  0.1620 -0.0133
    1W        W33248  10.687  22.464   9.018  0.1179  0.0073 -0.0473
    1W        W33249   3.120   4.286   2.694 -0.1606  0.2712  0.1243
    1W        W33250   0.241   2.275   8.065 -0.1860  0.2533  0.0388
    1W        W33251   1.667  20.440   8.436  0.2284 -0.2936  0.0955
    1W        W33252   5.709   5.915   9.036 -0.2821 -0.0034  0.1898
    1W        W33253   0.693  14.859   5.289 -0.1721  0.1077 -0.2044
    1W        W33254   1.048  28.778   7.947  0.0438 -0.1123 -0.2162
    1W        W33255   7.739  11.437   8.584  0.2480 -0.0817 -0.3454
    1W        W33256   9.854   3.748   0.795  0.1211  0.3027 -0.1546
    1W        W33257  21.028  11.936   0.456 -0.0858 -0.0734 -0.2704
    1W        W33258  24.543   1.674   0.093  0.2350 -0.0230  0.4027
    1W        W33259  26.627  27.549   1.334 -0.1603 -0.0722 -0.3298
    1W        W33260  22.472  13.737   2.401  0.0305 -0.0437 -0.0017
    1W        W33261   2.556   4.557   6.384  0.2803 -0.0400 -0.2321
    1W        W33262   1.515   8.600   8.144 -0.3566  0.2157  0.0263
    1W        W33263   0.697  23.942   9.012 -0.3382 -0.0241 -0.1879
    1W        W33264   6.084  26.226   7.671  0.0187 -0.0883  0.1774
    1W        W33265  28.195  24.575   6.855 -0.0899 -0.3194  0.2868
    1W        W33266  21.774  13.651   6.933 -0.0788  0.1477  0.0984
    1W        W33267  16.879   3.429   2.511  0.0743  0.1542 -0.1619
    1W        W33268  12.276  25.117   1.120 -0.1697 -0.0338 -0.1532
    1W        W33269  13.890   6.873   7.697 -0.0492  0.0354 -0.0090
    1W        W33270  19.428   2.657   1.352  0.2475 -0.0378 -0.2624
    1W        W33271  13.278   2.014   0.819  0.1741  0.1231  0.1817
    1W        W33272  20.473  27.524   7.389 -0.2273  0.0724 -0.0328
    1W        W33273  23.067  19.877   2.516 -0.1003 -0.0220 -0.0693
    1W        W33274  24.226   8.639   7.284  0.1852  0.0861  0.2272
    1W        W33275  23.567   9.737   8.800  0.0380 -0.1601 -0.1477
    1W        W33276  13.191  14.714   1.078 -0.3784  0.2628  0.2356
    1W        W33277  12.823  15.091   9.125 -0.0302  0.2117 -0.1457
    1W        W33278  30.090  25.330   0.144  0.0341 -0.3949 -0.2277
    1W        W33279  15.079   2.331   0.487  0.0181 -0.0380  0.0316
    1W        W33280   1.416  13.317   1.866  0.1371 -0.0792  0.0197
    1W        W33281  12.582   7.348   8.111 -0.0526  0.2270 -0.0140
    1W        W33282   8.798  25.131   0.603  0.3527  0.0350  0.1328
    1W        W33283  19.398  26.619   9.158  0.0968  0.2261  0.0998
    1W        W33284   5.683  16.498   1.531  0.0999  0.0984 -0.0156
    1W        W33285  14.282   7.371   8.895  0.2329  0.0955  0.0733
    1W        W33286  28.796  16.445   6.214 -0.0047 -0.0833  0.0146
    1W        W33287  25.292  14.104   6.480  0.0994 -0.1813  0.1857
    1W        W33288   6.832  10.749   2.541 -0.0798 -0.1571  0.3750
    1W        W33289  20.103   4.411   0.220 -0.2749  0.0193  0.0626
    1W        W33290   8.865  22.083   0.841  0.1293 -0.1214  0.0496
    1W        W33291   5.874   2.933   8.477  0.1414 -0.3292  0.1817
    1W        W33292  17.928   1.893   9.278  0.0611  0.0180 -0.2239
    1W        W33293   0.424   8.768   0.121  0.1222  0.1496  0.0410
    1W        W33294   1.322  22.228   7.286 -0.2487  0.2529 -0.0130
    1W        W33295  29.184  10.150   7.665 -0.0641  0.0205  0.1205
    1W        W33296  23.886   0.472   8.309 -0.1077 -0.1709 -0.1909
    1W        W33297  12.223  19.425   7.018 -0.0795 -0.0603 -0.0141
    1W        W33298   0.760   9.715   1.173  0.4550 -0.1903 -0.0535
    1W        W33299  20.781   0.060   2.667  0.4080 -0.3722 -0.3828
    1W        W33300  24.790  13.407   0.783  0.1252 -0.1384 -0.2763
    1W        W33301   9.065  15.417   2.789  0.1997  0.0095 -0.1511
    1W        W33302  21.426  14.032   0.322 -0.1117  0.1211 -0.0864
    1W        W33303   3.208   6.577   8.535 -0.0581 -0.2490  0.0432
    1W        W33304  28.030  18.712   6.564  0.0471 -0.1418  0.2565
    1W        W33305  30.020  17.361   8.650 -0.0496 -0.3101 -0.3200
    1W        W33306  13.328  16.373   0.675 -0.0527  0.1329 -0.0283
    1W        W33307   4.874  16.540   8.035  0.2365  0.2192 -0.0380
    1W        W33308  23.451  15.458   6.238 -0.3846 -0.0873 -0.0528
    1W        W33309   4.022  11.609   1.049  0.1427  0.0148  0.1475
    1W        W33310  12.319   6.067   3.352 -0.2020  0.0600  0.1219
    1W        W33311   8.554  18.097   1.564  0.4285  0.0868  0.4668
    1W        W33312  24.498  23.232   1.075  0.0105 -0.1415 -0.1018
    1W        W33313   3.852  29.275   8.278 -0.0696 -0.0010  0.0391
    1W        W33314  29.097  12.255   1.259 -0.0326  0.2270 -0.0253
    1W        W33315  16.432  11.631   1.113 -0.0243  0.1196  0.0700
    1W        W33316   0.216  22.004   0.206 -0.0546  0.2387 -0.1084
    1W        W33317  22.717  21.869   6.742 -0.0582 -0.2710 -0.1327
    1W        W33318  25.872   5.849   7.890  0.0910  0.2803  0.1888
    1W        W33319   1.172  22.003   2.101  0.1291  0.2547 -0.2042
    1W        W33320  19.898   7.411   0.334  0.0258 -0.1954 -0.0457
    1W        W33321   5.835  10.679   8.611 -0.1934  0.0454 -0.1826
    1W        W33322  10.220  27.568   0.335  0.1374 -0.3608 -0.2117
    1W        W33323  23.549   2.871   9.251 -0.0876  0.2375  0.1539
    1W        W33324  10.241  23.286   6.695 -0.1205 -0.0530 -0.2715
    1W        W33325  10.683   2.757   3.918  0.1031 -0.0492 -0.1377
    1W        W33326  28.301   7.370   2.333 -0.0108 -0.3264 -0.2601
    1W        W33327  18.142  27.435   7.617  0.0677  0.2100  0.0981
    1W        W33328  22.676  10.057   2.259 -0.0336  0.1336  0.1953
    1W        W33329  21.329  27.347   7.373 -0.1484  0.1086 -0.0122
    1W        W33330  20.626  17.427   7.553  0.0968  0.0757  0.1800
    1W        W33331   3.112  12.491   0.376  0.1084  0.2400  0.4084
    1W        W33332  13.328   9.263   0.123 -0.3897 -0.0390  0.1633
    1W        W33333   5.783  22.806   7.838  0.0470  0.0354 -0.0906
    1W        W33334  10.331  25.192   0.574 -0.4045  0.0830  0.0408
    1W        W33335   8.453  26.708   7.283  0.1099 -0.6145  0.1242
    1W        W33336  22.198  22.650   0.770 -0.0320 -0.0888  0.0672
    1W        W33337  13.721  19.249   8.610  0.1485  0.1100  0.3499
    1W        W33338  15.616  18.512   2.558  0.2351  0.0999  0.1499
    1W        W33339  11.784   6.744   0.368 -0.2571  0.0375  0.4140
    1W        W33340   8.996  28.574   7.832  0.1041  0.0904 -0.0920
    1W        W33341  20.944  22.348   0.794 -0.3303 -0.3439 -0.2010
    1W        W33342  17.754  11.439   0.996  0.0470  0.4442 -0.1862
    1W        W33343   1.189  21.703   8.246  0.0627 -0.0030  0.1197
    1W        W33344   9.127   6.329   1.869 -0.0110 -0.0741  0.0123
    1W        W33345   4.699  22.527   1.331 -0.2132  0.1431  0.0490
    1W        W33346  24.018  14.267   0.053  0.0823  0.2572 -0.1453
    1W        W33347  21.763  13.720   0.731 -0.1165  0.0341 -0.0393
    1W        W33348  11.201  28.318   2.722  0.0221  0.4257  0.0172
    1W        W33349  16.886   6.893   2.551  0.0410  0.0069  0.0440
    1W        W33350  22.130  15.573   1.399 -0.1765  0.1921 -0.1392
    1W        W33351  13.937  25.379   2.265  0.3121  0.1751  0.2499
    1W        W33352  20.076  27.128   8.857  0.1555 -0.0497  0.4833
    1W        W33353  23.339  27.264   8.897  0.3304 -0.1630  0.3010
    1W        W33354  20.850   4.987   1.860 -0.2889 -0.3862 -0.2488
    1W        W33355  16.772   8.730   1.495 -0.1828 -0.1277  0.2285
    1W        W33356  14.959  15.941   9.139  0.0913  0.0566 -0.0687
    1W        W33357  28.364  11.315   8.407  0.4061 -0.0605  0.1851
    1W        W33358  21.437  15.425   2.223  0.2278  0.0327  0.1318
    1W        W33359   1.492  11.713   1.413 -0.0979  0.0152  0.1084
    1W        W33360   6.623  28.123   7.133 -0.0647  0.1250  0.2305
    1W        W33361   8.045   9.433   8.173 -0.1733 -0.1196  0.0039
    1W        W33362   3.940  15.077   1.030  0.1962  0.3718  0.0653
    1W        W33363  28.943  27.237   7.501 -0.0940 -0.0261 -0.2680
    1W        W33364  25.569   8.345   8.414 -0.2469  0.1849  0.1132
    1W        W33365  20.273   3.345   2.247  0.1193 -0.1683  0.1495
    1W        W33366   1.988  10.540   0.979 -0.2723 -0.1099  0.0038
    1W        W33367   8.530  22.899   7.317  0.1060 -0.1919 -0.2872
    1W        W33368  16.878  20.575   7.852  0.0546  0.0246 -0.2503
    1W        W33369  21.070  18.455   8.454 -0.0734  0.2135 -0.2224
    1W        W33370  20.451  26.468   1.151  0.0057 -0.0233 -0.1982
    1W        W33371  17.150  29.620   2.236 -0.0665 -0.2129  0.0062
    1W        W33372  15.721  10.527   1.703  0.0818  0.0452 -0.2075
    1W        W33373   2.824  10.657   8.860  0.3325  0.0772 -0.1735
    1W        W33374  16.858  17.854   0.444  0.0160 -0.0919  0.0146
    1W        W33375  10.629   5.458   8.245  0.1469 -0.0127 -0.0419
    1W        W33376  18.273  21.365   8.242  0.2028 -0.2337 -0.0042
    1W        W33377   7.224  24.532   2.486  0.0721 -0.1036  0.0537
    1W        W33378   4.646  12.485   6.854 -0.1054  0.2879 -0.4028
    1W        W33379   8.902  11.547   2.829 -0.0932 -0.0940 -0.0597
    1W        W33380   3.075  29.867   1.638 -0.4810  0.0571  0.1364
    1W        W33381  17.180  29.225   7.655 -0.0319  0.1350 -0.1368
    1W        W33382   8.083   1.305   9.265  0.0945 -0.1703 -0.0336
    1W        W33383  12.283  25.184   9.339  0.1935  0.0348 -0.0906
    1W        W33384  12.521  16.479   0.385 -0.2393  0.2071  0.3014
    1W        W33385   6.285   4.306   2.765  0.2978 -0.1942 -0.1776
    1W        W33386  25.928  21.538   6.619 -0.1847 -0.0406  0.0456
    1W        W33387  13.033  21.772   0.994 -0.0183  0.0967  0.2356
    1W        W33388  13.288   8.343   9.282  0.4259 -0.2690  0.0677
    1W        W33389  24.074  15.230   6.009 -0.1160 -0.2102 -0.0350
    1W        W33390   9.409   6.934   6.951  0.1390 -0.0925 -0.0379
    1W        W33391  26.563  18.736   5.718 -0.1511  0.0835  0.0250
    1W        W33392   6.015  16.467   8.438 -0.1071  0.1986 -0.1283
    1W        W33393  21.677  20.510   8.596  0.0358 -0.0904 -0.1137
    1W        W33394  23.119  15.893   6.259  0.1065  0.1616 -0.0352
    1W        W33395  16.437   6.082   7.349 -0.4004  0.0283  0.1228
    1W        W33396   9.444  21.861   1.279 -0.1134 -0.0469  0.0541
    1W        W33397  27.847  18.047   0.121 -0.1791  0.0535 -0.2424
    1W        W33398   0.681  18.964   6.427  0.1246  0.0170  0.3413
    1W        W33399  21.306  10.878   1.240 -0.1866  0.0375 -0.1204
    1W        W33400  20.542  14.819   1.388  0.2566 -0.1636 -0.0904
    1W        W33401  26.202  23.540   9.044 -0.2590  0.0162 -0.3813
    1W        W33402  12.503  27.977   2.652 -0.1310 -0.3106  0.1258
    1W        W33403  26.654  27.558   8.770  0.0811 -0.0056  0.0851
    1W        W33404   5.462  12.452   7.284  0.2127 -0.0975 -0.0299
    1W        W33405  22.861  15.381   7.247  0.4045  0.3315 -0.2069
    1W        W33406   9.974  13.163   2.042 -0.1992 -0.0684 -0.0083
    1W        W33407   8.371   9.556   0.617 -0.2010 -0.1252  0.0904
    1W        W33408  22.097  24.693   1.206 -0.1788  0.0677 -0.1748
    1W        W33409   1.261  25.537   8.250 -0.3304  0.2861 -0.3921
    1W        W33410  17.034   0.027   8.877 -0.1623  0.1427  0.1777
    1W        W33411  14.708   4.283   2.711  0.1042  0.3428 -0.0175
    1W        W33412  18.454  22.673   7.910  0.2715  0.0016  0.2331
    1W        W33413  15.227  29.420   0.442  0.0589  0.0708  0.0105
    1W        W33414  23.792   6.196   0.646  0.0265  0.0435 -0.0746
    1W        W33415  25.708   2.745   0.205  0.0206 -0.1178  0.0863
    1W        W33416   5.558  13.404   8.236  0.2963 -0.1893  0.1467
    1W        W33417  27.245   2.143   9.304 -0.4267  0.1144  0.0999
    1W        W33418  24.335  23.910   8.642 -0.3688  0.1179 -0.0479
    1W        W33419  14.607  20.210   1.600 -0.3104 -0.0130 -0.0516
    1W        W33420  23.623  25.746   2.368  0.4063 -0.0008 -0.1798
    1W        W33421   8.739   2.402   7.024  0.0407  0.1008 -0.3002
    1W        W33422  20.193   9.200   1.757  0.3216  0.0694  0.1062
    1W        W33423   9.490   4.987   0.910 -0.1880  0.1706 -0.0296
    1W        W33424  10.591  12.636   9.214 -0.1229 -0.1100 -0.3641
    1W        W33425  21.524  15.438   7.270 -0.0059  0.0368  0.0993
    1W        W33426  28.855  15.218   6.254 -0.1030 -0.0438 -0.1450
    1W        W33427  29.137  23.585   2.054 -0.3154 -0.1879 -0.1614
    1W        W33428   8.025  25.608   6.616 -0.0142  0.1092 -0.0025
    1W        W33429   4.625  27.473   7.029 -0.1743 -0.0276  0.1336
    1W        W33430  16.005   3.502   7.254 -0.4026  0.0515  0.0083
    1W        W33431  22.863  12.782   2.103  0.2456  0.0629  0.2396
    1W        W33432  27.164   8.012   7.118  0.0504  0.0260  0.0077
    1W        W33433   0.325   1.031   2.314  0.0855 -0.3115 -0.1077
    1W        W33434   7.731   1.856   1.430  0.0887  0.1064 -0.1643
    1W        W33435   4.576   4.912   7.562  0.1587  0.1630 -0.0385
    1W        W33436   8.020  29.520   7.663 -0.0510  0.0397 -0.0986
    1W        W33437  19.019  19.483   1.451  0.1828 -0.0921  0.0180
    1W        W33438  29.672   2.006   8.475  0.2772 -0.3378  0.1397
    1W        W33439  27.180  24.880   8.965 -0.2929  0.1636 -0.3016
    1W        W33440   4.212  25.892   6.585 -0.3647  0.0143  0.1243
    1W        W33441  23.494  23.073   8.516  0.2151  0.1216  0.0072
    1W        W33442  20.338  16.847   1.196 -0.4343 -0.0163  0.1102
    1W        W33443  23.563  24.310   0.339  0.2606 -0.0521  0.2204
    1W        W33444  26.520   3.381   0.643  0.1231  0.2603 -0.1608
    1W        W33445   8.940  15.446   8.892 -0.3081  0.3241  0.0154
    1W        W33446  21.644   7.010   1.782  0.0379 -0.1348  0.0853
    1W        W33447   4.068  13.927   0.083  0.0860  0.1297  0.0346
    1W        W33448  24.693  27.770   9.170 -0.1649  0.2633 -0.0491
    1W        W33449  28.386   1.757   9.190  0.1079 -0.0637  0.2022
    1W        W33450  17.769  25.350   8.511 -0.1610  0.0535  0.1052
    1W        W33451   5.636  18.090   2.244 -0.0379 -0.1094 -0.2916
    1W        W33452   3.259  26.764   2.352 -0.0273  0.0571  0.1106
    1W        W33453  21.228  17.796   0.927  0.2637 -0.2114  0.5264
    1W        W33454  14.423  26.704   0.099  0.1372 -0.0630  0.0041
    1W        W33455  14.900   9.277   9.206 -0.0193 -0.1591  0.1979
    1W        W33456   4.207  25.047   0.591  0.2340  0.2432  0.2654
    1W        W33457  28.331  29.150   1.466  0.3371 -0.1553 -0.0395
    1W        W33458  29.691  27.866   8.597  0.3328 -0.5594 -0.0240
    1W        W33459   7.301   1.310   3.081 -0.1274 -0.0340 -0.0965
    1W        W33460   0.518  10.654   1.502  0.4233 -0.0015 -0.1507
    1W        W33461  14.484  26.980   7.206 -0.0018  0.0058  0.0225
    1W        W33462   3.593   3.843   7.226  0.0279 -0.0248  0.3377
    1W        W33463  23.029  10.518   7.166  0.0563  0.1639 -0.0859
    1W        W33464  28.357   5.713   0.923  0.1195 -0.1071 -0.1059
    1W        W33465  26.929  25.000   0.421 -0.1659 -0.1717  0.0740
    1W        W33466  28.131  22.615   0.976  0.0703  0.2405 -0.0103
    1W        W33467  29.633  24.513   6.597 -0.1331 -0.2463  0.4289
    1W        W33468   6.129  23.747   0.800 -0.1199  0.1840  0.0640
    1W        W33469   7.437   3.095   0.650  0.0868 -0.0784  0.0266
    1W        W33470   6.881  21.216   1.364  0.0367  0.0760 -0.0063
    1W        W33471  15.761   6.523   1.783 -0.0808  0.1516 -0.0622
    1W        W33472  10.769  28.254   9.326 -0.0133 -0.0989  0.0422
    1W        W33473  12.639  21.446   0.657  0.0339  0.0407 -0.0267
    1W        W33474   9.224  16.377   1.426  0.0458 -0.0619 -0.2365
    1W        W33475  14.205  23.614   8.374 -0.0506 -0.0764 -0.1456
    1W        W33476  13.302  15.319   2.187 -0.0427  0.0790  0.0791
    1W        W33477  26.047  16.361   6.789  0.4518 -0.0338  0.0382
    1W        W33478   8.894   1.505   1.925 -0.0229  0.0474 -0.0921
    1W        W33479   7.041  23.453   8.000 -0.0669 -0.1523  0.0232
    1W        W33480   2.701  15.318   0.450 -0.0082 -0.0565 -0.4045
    1W        W33481   3.949   6.488   3.084 -0.1261  0.1004  0.0852
    1W        W33482  20.288   7.330   1.646 -0.0171 -0.2849 -0.0087
    1W        W33483  24.930  26.592   7.077  0.0817 -0.3275 -0.1094
    1W        W33484  25.762   4.891   3.018 -0.1462  0.4209 -0.2111
    1W        W33485  29.125  21.277   9.395 -0.3088  0.0105  0.0524
    1W        W33486  22.888   3.378   0.504 -0.1277 -0.0101  0.1791
    1W        W33487   4.912  21.307   8.511  0.0809 -0.0011 -0.0029
    1W        W33488   1.492   5.664   2.576 -0.3374  0.0958  0.0709
    1W        W33489   7.301  21.296   8.645  0.1848 -0.3711 -0.2861
    1W        W33490  11.751   7.926   2.066 -0.1910 -0.0688  0.1719
    1W        W33491  17.563  25.654   8.959 -0.0157  0.0121  0.1997
    1W        W33492  20.223  24.033   7.988  0.0498  0.1368  0.2457
    1W        W33493  15.864  23.228   1.441  0.0266 -0.1910  0.0665
    1W        W33494  30.133   0.130   2.981  0.1791  0.2719  0.2574
    1W        W33495   5.030  20.928   8.914  0.1400 -0.0407 -0.0697
    1W        W33496  20.790   2.655   8.160  0.0499  0.1039  0.2017
    1W        W33497  19.477   5.297   1.399 -0.2354  0.1951 -0.0178
    1W        W33498  14.990  21.175   8.733  0.0062 -0.1807  0.1614
    1W        W33499   7.425   1.786   0.972 -0.2070  0.1514  0.2987
    1W        W33500   2.835   7.692   7.036 -0.1556 -0.1808 -0.0440
    1W        W33501  29.458  20.339   6.430  0.1392  0.0146 -0.0454
    1W        W33502  16.710   3.224   8.075  0.1120  0.2331 -0.1317
    1W        W33503  29.824  15.701   5.842 -0.1754  0.1670  0.1688
    1W        W33504  28.666   1.060   1.773  0.1164  0.0504  0.1497
    1W        W33505  30.126  12.254   0.625  0.0181  0.4283  0.3562
    1W        W33506   8.750   4.237   8.866  0.0118 -0.1697 -0.0658
    1W        W33507  20.777  23.731   2.684  0.1702  0.2941  0.1129
    1W        W33508   7.932  15.054   8.085  0.0305  0.0538 -0.2102
    1W        W33509  27.459  23.322   0.620 -0.4242  0.1431 -0.0559
    1W        W33510  18.902   3.403   2.418  0.0401 -0.1481 -0.0504
    1W        W33511  23.207   1.433   1.850 -0.3239  0.0168 -0.2143
    1W        W33512  22.447  15.261   6.574  0.1284 -0.3294  0.0124
    1W        W33513   1.669  24.366   7.961 -0.0646 -0.2877 -0.1270
    1W        W33514  15.150   7.879   1.852 -0.1160 -0.0514 -0.6160
    1W        W33515   6.568  20.514   6.594 -0.1690 -0.1423  0.1246
    1W        W33516  19.102  28.919   2.651  0.0224 -0.3300 -0.3239
    1W        W33517  24.278   9.922   6.780  0.0779 -0.0189  0.0784
    1W        W33518  12.828  23.091   8.053 -0.1169  0.0548  0.0910
    1W        W33519  22.336   4.456   8.178 -0.1899  0.0757 -0.3068
    1W        W33520  22.577   4.414   9.045 -0.2530  0.1276  0.2674
    1W        W33521   9.167   5.013   2.566  0.0542  0.0559  0.2627
    1W        W33522  17.357  19.002   8.577  0.0420 -0.1998 -0.2483
    1W        W33523   9.655  19.988   5.830  0.1720  0.3082 -0.0461
    1W        W33524  16.152  23.131   1.057 -0.1529 -0.2895 -0.2725
    1W        W33525   2.551  21.437   8.629 -0.4580  0.1461  0.0469
    1W        W33526  15.280  15.764   8.174 -0.0962  0.1185 -0.2859
    1W        W33527   2.758   4.977   1.225 -0.2600  0.3103  0.0243
    1W        W33528   6.013   7.473   2.597 -0.1597 -0.2854  0.0228
    1W        W33529   4.230  14.918   9.210  0.0235 -0.0347 -0.0471
    1W        W33530   2.524  16.014   6.430 -0.0943  0.1760  0.0687
    1W        W33531  21.123  26.562   0.597 -0.0890 -0.0395 -0.1380
    1W        W33532   3.850  28.968   1.148  0.0109  0.0972  0.1594
    1W        W33533  14.305  21.778   8.968  0.2747  0.0370 -0.1424
    1W        W33534   8.491   1.911   7.369 -0.2030 -0.3909 -0.3321
    1W        W33535  12.066  18.661   7.381 -0.2904 -0.0312 -0.0120
    1W        W33536   1.811   5.963   3.493 -0.2544  0.1574 -0.4272
    1W        W33537  13.148  15.106   8.629 -0.2813  0.1364 -0.0287
    1W        W33538  19.909   4.658   0.862  0.2704  0.0027 -0.0658
    1W        W33539   0.279  15.614   7.627 -0.1090  0.0180 -0.1790
    1W        W33540   0.362   6.256   8.439  0.2772 -0.0866 -0.2887
    1W        W33541  13.828  25.269   9.385  0.0774 -0.3694  0.3783
    1W        W33542  28.636  26.752   8.151 -0.2474 -0.0972  0.1194
    1W        W33543  22.585  25.371   3.501  0.4404  0.0182  0.0852
    1W        W33544   5.763   6.048   8.070 -0.2818  0.1221 -0.3948
    1W        W33545  13.339  15.748   1.407  0.2300 -0.0094 -0.2725
    1W        W33546  23.865  15.978   1.247  0.0394 -0.1004  0.1342
    1W        W33547  11.290   5.726   1.909  0.1317 -0.1794  0.0115
    1W        W33548  23.544  10.377   0.191 -0.0577  0.2285 -0.3590
    1W        W33549   6.251  20.687   1.598 -0.0805  0.0314 -0.1126
    1W        W33550   1.471  19.603   7.129  0.0000  0.1512  0.1214
    1W        W33551  29.789   2.728   0.042 -0.0765 -0.0964 -0.2940
    1W        W33552   9.669   6.892   2.663 -0.2536  0.0765  0.0895
    1W        W33553   8.131   9.760   3.286  0.1284 -0.1096  0.1658
    1W        W33554  11.877  16.168   0.752  0.1244  0.0043  0.1520
    1W        W33555  28.896  15.708   6.197  0.2931  0.1705  0.1353
    1W        W33556  11.041  19.985   2.712  0.2226 -0.0994  0.0728
    1W        W33557   8.587   1.186   2.259  0.3093  0.0256  0.2626
    1W        W33558   4.417  17.593   0.423 -0.3321  0.1363 -0.0804
    1W        W33559  19.405  28.037   6.977  0.0563 -0.1891  0.1711
    1W        W33560  12.388  27.324   2.103 -0.1889 -0.0111 -0.0309
    1W        W33561  16.971  24.872   6.504 -0.1745  0.0243  0.2008
    1W        W33562  22.845   6.000   0.392 -0.2024  0.1406  0.1302
    1W        W33563   3.439  10.550   7.857 -0.2988 -0.1945  0.2660
    1W        W33564  16.833   0.115   0.764 -0.1934 -0.0992  0.1293
    1W        W33565  13.567  25.224   1.011  0.0497  0.0153  0.2204
    1W        W33566  29.315  22.683   6.375 -0.1938 -0.5746  0.1747
    1W        W33567  23.480   6.137   8.071 -0.1661  0.1295  0.0402
    1W        W33568  24.583  13.247   8.948  0.0917  0.0359 -0.1547
    1W        W33569  13.771  24.846   0.761 -0.1518 -0.2173  0.2413
    1W        W33570  12.484  23.614   1.652  0.2253 -0.0376  0.0971
    1W        W33571  29.352   3.586   2.477  0.0776  0.0279  0.1311
    1W        W33572  28.127  17.873   8.159 -0.0365  0.0793 -0.0353
    1W        W33573  19.016  29.519   0.683 -0.0836 -0.0803  0.0721
    1W        W33574   0.727  15.358   7.732  0.3405  0.2410  0.2774
    1W        W33575  20.231  20.439   7.857 -0.0275 -0.0475  0.0415
    1W        W33576  20.803   4.566   7.960  0.2177  0.0886 -0.0376
    1W        W33577  26.515  18.398   8.389  0.1083 -0.2937  0.0212
    1W        W33578  20.438  24.707   2.288 -0.1597 -0.0791 -0.3646
    1W        W33579   1.154  26.374   8.809  0.0607 -0.2602  0.3420
    1W        W33580  13.295  24.056   7.210 -0.0359  0.0917 -0.1341
    1W        W33581   5.511  10.862   1.853  0.1957 -0.1274  0.0870
    1W        W33582   6.248  30.081   3.390 -0.1966 -0.0803  0.1196
    1W        W33583  15.655   6.331   2.198 -0.0147 -0.0896 -0.1062
    1W        W33584  17.904  29.434   8.787 -0.4055  0.3374  0.1094
    1W        W33585  14.239   5.156   2.721 -0.1755  0.1085 -0.2533
    1W        W33586   1.722  25.753   1.692  0.0190  0.4872 -0.1750
    1W        W33587  23.467  11.516   1.964 -0.0453  0.1642  0.1912
    1W        W33588   7.858   4.473   1.146 -0.1083  0.2006  0.0191
    1W        W33589   7.066   3.020   1.641  0.1151  0.2391 -0.1437
    1W        W33590  13.908  29.000   9.227  0.3571  0.0808 -0.0668
    1W        W33591  17.471  12.309   2.329 -0.0990 -0.0104 -0.1203
    1W        W33592  18.831   1.462   2.773  0.2256 -0.3455 -0.1614
    1W        W33593  10.759  17.431   8.421  0.1346 -0.0516 -0.1644
    1W        W33594   1.529   6.678   7.110 -0.1699  0.2137 -0.0709
    1W        W33595  21.998  15.102   6.403 -0.2321 -0.2214  0.0207
    1W        W33596  14.794  29.464   8.381 -0.1526 -0.1326  0.0069
    1W        W33597  28.240   5.459   2.501  0.1016  0.0644 -0.3012
    1W        W33598  16.771  20.349   2.088 -0.0960  0.1009 -0.0847
    1W        W33599  29.229   2.590   2.528  0.2435  0.0866  0.3266
    1W        W33600   4.647  20.042   4.882  0.2148 -0.1319 -0.1086
    1W        W33601  11.271  26.131   8.165  0.0976  0.0222 -0.4840
    1W        W33602  11.999   8.075   3.000  0.1246 -0.1206 -0.0182
    1W        W33603   4.492   2.164   3.787 -0.2080 -0.0309  0.2464
    1W        W33604  15.895  26.778   7.462  0.2027  0.0477  0.2343
    1W        W33605   1.177  24.243   6.669  0.0754 -0.0445  0.1015
    1W        W33606  18.459   3.087   8.113 -0.1385 -0.3596 -0.0599
    1W        W33607  13.418  15.960   8.262  0.1517 -0.1829  0.2274
    1W        W33608  23.582  17.686   7.703 -0.1075  0.2274 -0.0175
    1W        W33609  21.676  28.885   1.875 -0.3301  0.6480  0.0308
    1W        W33610  13.428  18.803   0.177  0.0999 -0.0772 -0.0445
    1W        W33611   2.271  26.358   7.868 -0.1771  0.5705 -0.0946
    1W        W33612  19.833   5.318   2.783  0.0418  0.2352  0.0129
    1W        W33613  15.953  11.915   8.530  0.1301 -0.1202 -0.0669
    1W        W33614  23.611  21.991   0.172 -0.3332  0.2052  0.0358
    1W        W33615  18.808  27.438   2.372 -0.2395 -0.1852 -0.1436
    1W        W33616   2.523   1.108   0.495  0.5342  0.2425  0.4081
    1W        W33617  16.726  18.677   1.042  0.0121 -0.0731  0.2223
    1W        W33618   6.339  23.020   7.792  0.1870  0.1833 -0.0641
    1W        W33619  15.449   9.877   7.797  0.1139 -0.1140 -0.0710
    1W        W33620  14.844  14.596   0.992 -0.3043 -0.0490 -0.2341
    1W        W33621  20.615  23.521   7.950 -0.2585  0.0172  0.0218
    1W        W33622  10.068  14.293   1.879 -0.0816  0.0424 -0.1834
    1W        W33623  13.831  16.373   1.028  0.0172 -0.1704 -0.0103
    1W        W33624  23.327  24.435   8.638  0.0189 -0.1194  0.2299
    1W        W33625  13.535  20.193   0.773  0.1564 -0.0284  0.1125
    1W        W33626  18.151   9.059   1.577  0.1974 -0.1944 -0.3439
    1W        W33627  28.201   4.952   6.837  0.1376  0.1490 -0.2089
    1W        W33628  18.970  23.794   7.335  0.2108 -0.1513 -0.1856
    1W        W33629  28.673  16.551   0.530 -0.1173 -0.1222  0.1027
    1W        W33630  16.043   2.912   8.663  0.0567 -0.0230  0.0257
    1W        W33631  14.608  15.046   0.820 -0.3327 -0.0578 -0.0418
    1W        W33632  16.466  25.891   7.310  0.0621 -0.3693 -0.2146
    1W        W33633   1.396  26.367   1.077  0.2067  0.0038  0.2579
    1W        W33634  15.217  15.910   1.205 -0.3380  0.1779 -0.2334
    1W        W33635   7.794  24.070   7.002 -0.0141  0.2542  0.3033
    1W        W33636  27.845  14.574   0.820  0.4643  0.2862 -0.0021
    1W        W33637  22.900  27.428   8.473  0.0476 -0.3637  0.0872
    1W        W33638   3.624   3.556   0.931  0.1718 -0.0147  0.1304
    1W        W33639  13.452  17.234   0.846  0.0203 -0.2188  0.0121
    1W        W33640  12.737  25.280   1.467  0.1103  0.2834 -0.0522
    1W        W33641  12.525  17.189   6.680 -0.1381  0.0363 -0.3346
    1W        W33642  17.245   0.754   2.262 -0.1201 -0.1796 -0.0126
    1W        W33643  19.113   1.648   2.438  0.0755 -0.0430 -0.2729
    1W        W33644  23.248  10.996   7.070  0.1142  0.1637 -0.0611
    1W        W33645  29.259   7.749   9.248  0.2103  0.0734 -0.1301
    1W        W33646  29.681   7.207   6.641  0.3604 -0.0819 -0.2783
    1W        W33647   5.196  22.607   1.280 -0.1468 -0.0910 -0.2319
    1W        W33648   2.960  30.090   7.934  0.0128  0.0610 -0.3187
    1W        W33649  28.899   5.061   0.606 -0.2808 -0.0064  0.0765
    1W        W33650   4.002  23.736   9.214  0.3569  0.3561 -0.1108
    1W        W33651   1.198  17.105   9.363  0.1902 -0.0555 -0.3140
    1W        W33652   0.150   1.118   9.249 -0.0916 -0.1078 -0.1504
    1W        W33653  30.046  21.810   7.560 -0.0273  0.2468  0.1223
    1W        W33654  11.471  14.703   1.135  0.1436  0.0203 -0.0687
    1W        W33655  19.493  14.895   8.089  0.0949 -0.1193 -0.0930
    1W        W33656  14.192  20.535   9.040  0.0665 -0.0765  0.0942
    1W        W33657  29.395   1.030   2.669  0.0301  0.1104 -0.3274
    1W        W33658   8.932  21.097   1.728 -0.2406  0.3578  0.3368
    1W        W33659  19.401  20.660   7.228 -0.0580  0.2500  0.0759
    1W        W33660   9.381  22.817   1.398  0.1676 -0.1098 -0.0868
    1W        W33661  19.677  29.485   7.384 -0.1335  0.0097  0.2685
    1W        W33662  17.237  10.183   6.742  0.2394  0.0558  0.0251
    1W        W33663   4.180   1.794   3.571  0.0707  0.0230 -0.2924
    1W        W33664   1.362  28.099   7.383 -0.2691 -0.1697  0.1141
    1W        W33665   9.329   2.187   2.475 -0.0522 -0.0250  0.1871
    1W        W33666  26.329  25.946   2.741 -0.0635  0.0097 -0.1560
    1W        W33667   6.302  10.758   7.421 -0.1047  0.0722  0.1959
    1W        W33668  16.925  16.280   0.519 -0.2797 -0.0900  0.2497
    1W        W33669  28.690   8.510   6.834 -0.0268 -0.1669 -0.0070
    1W        W33670   7.629  12.440   1.180 -0.2539  0.1792 -0.0757
    1W        W33671   2.387  20.732   0.659 -0.1188 -0.2505  0.2737
    1W        W33672  12.603  24.621   7.447  0.2237  0.0117 -0.0603
    1W        W33673  17.190  13.115   7.972 -0.0331 -0.2552 -0.0584
    1W        W33674  27.396  29.224   1.593  0.0836 -0.0684 -0.1469
    1W        W33675   7.508  20.562   7.700 -0.0858 -0.1927  0.0028
    1W        W33676  16.487  22.969   2.697 -0.1215  0.0432  0.1010
    1W        W33677  29.361  26.860   7.685 -0.0367 -0.0059 -0.0595
    1W        W33678  21.132   8.297   2.522  0.3171  0.0676  0.0869
    1W        W33679   0.955  16.702   9.363 -0.1248  0.0509  0.2962
    1W        W33680  17.785   1.752   1.106  0.1271  0.1834  0.0023
    1W        W33681  25.360   0.380   0.722  0.1958  0.0084  0.5061
    1W        W33682   5.082  18.662   6.042 -0.0414  0.0046  0.5231
    1W        W33683   8.363   3.311   3.097  0.4645 -0.0724 -0.0250
    1W        W33684   0.752  26.451   9.149 -0.0039  0.4056 -0.0228
    1W        W33685  17.958  21.380   2.489 -0.1186 -0.1164 -0.0420
    1W        W33686   9.293  29.913   2.259  0.0672  0.1971 -0.0502
    1W        W33687  15.916  25.426   7.873 -0.0386 -0.1331 -0.0236
    1W        W33688   5.691   2.906   7.969  0.0271 -0.0288  0.0241
    1W        W33689  21.173   1.898   9.262 -0.2953  0.0007 -0.1757
    1W        W33690   8.625   6.926   8.800 -0.0349  0.1502  0.1700
    1W        W33691  12.905  15.467   1.407 -0.4080  0.1394 -0.1296
    1W        W33692  10.744  28.732   8.577 -0.1810 -0.4018 -0.0733
    1W        W33693  21.959  12.099   7.980 -0.1133 -0.2024 -0.0060
    1W        W33694  21.885  13.019   0.171  0.0481 -0.0561  0.2003
    1W        W33695  21.796  27.446   3.197 -0.2550 -0.3590 -0.0117
    1W        W33696  25.764  28.849   1.861 -0.6420 -0.1695  0.0571
    1W        W33697  11.865  21.175   7.476  0.4263 -0.2373 -0.1479
    1W        W33698  27.587   3.875   7.501  0.0898  0.1840  0.1718
    1W        W33699  29.526  29.917   0.382 -0.1486 -0.0331  0.2255
    1W        W33700   6.752   3.777   9.354  0.1907  0.0861  0.1471
    1W        W33701  14.700  22.512   8.676 -0.3089  0.2165  0.0568
    1W        W33702  16.671  26.030   9.126  0.0986 -0.1818  0.1868
    1W        W33703  28.481   6.132   7.244  0.2229  0.0585  0.1362
    1W        W33704  24.921  11.522   7.802 -0.0409 -0.0379 -0.1529
    1W        W33705  20.811   7.199   1.355 -0.0177 -0.1186 -0.2496
    1W        W33706   2.661   7.364   0.112  0.0580 -0.0598  0.2401
    1W        W33707  14.090  25.804   9.328 -0.3461  0.1352  0.0311
    1W        W33708   8.031  13.691   8.905  0.0549  0.5599 -0.0039
    1W        W33709  16.847   8.377   7.657 -0.2592  0.0144  0.1230
    1W        W33710  25.003  15.086   6.867  0.0749  0.1192 -0.0487
    1W        W33711   3.675  29.843   3.035  0.0613 -0.1051  0.0712
    1W        W33712   7.379   0.655   7.028 -0.3074  0.0400 -0.1228
    1W        W33713   3.328  16.730   8.765  0.3140 -0.0605  0.3183
    1W        W33714  24.191  13.678   7.291 -0.0347 -0.2334  0.1983
    1W        W33715   6.526  25.166   9.380  0.1002  0.0059  0.0782
    1W        W33716  12.672   3.490   9.119 -0.1378  0.0664  0.1309
    1W        W33717  21.327   7.412   8.827 -0.0867  0.0440 -0.2253
    1W        W33718   0.563  21.167   6.812 -0.3241  0.1208  0.0596
    1W        W33719  12.644  16.081   2.015 -0.1793  0.0564 -0.0836
    1W        W33720  19.620  12.861   0.160  0.0563 -0.1113 -0.1928
    1W        W33721   1.105  21.449   0.263 -0.0144  0.0559  0.1513
    1W        W33722  11.521  22.171   1.260  0.2554  0.0484  0.1936
    1W        W33723  28.141  24.631   1.576  0.1075 -0.0471 -0.0508
    1W        W33724  11.075  23.479   2.399 -0.0146 -0.0572 -0.3827
    1W        W33725   7.864   8.869   7.829 -0.0441 -0.0287 -0.0804
    1W        W33726  29.178   7.710   0.346 -0.1109 -0.1922 -0.0323
    1W        W33727   7.067   6.765   9.186  0.0222 -0.2068  0.0078
    1W        W33728  25.996   7.285   1.996 -0.0991 -0.0259  0.2627
    1W        W33729  18.189  29.136   8.402  0.1784 -0.0173 -0.1516
    1W        W33730  23.744  25.905   3.254  0.0621  0.1691  0.2955
    1W        W33731  18.893  12.788   1.117 -0.3696  0.1811  0.0215
    1W        W33732  12.683  25.974   6.330  0.1196 -0.3096 -0.1212
    1W        W33733   4.532   4.424   7.572  0.1807 -0.1035  0.2264
    1W        W33734   3.952   0.728   1.489 -0.1581 -0.1650 -0.0274
    1W        W33735  26.967   5.763   0.741 -0.4075  0.0941  0.1564
    1W        W33736  25.397  18.210   0.094  0.1715 -0.1876  0.0147
    1W        W33737  26.885  29.334   8.795 -0.1804 -0.2056 -0.0585
    1W        W33738  19.877   0.021   2.442 -0.0928  0.1607 -0.0587
    1W        W33739  26.790  26.958   7.374 -0.0519  0.0484  0.2512
    1W        W33740  28.018  19.354   2.010  0.1488 -0.3328 -0.0333
    1W        W33741  19.072   4.962   1.267  0.1648  0.0339  0.0959
    1W        W33742  27.328  12.273   0.622  0.2234 -0.0062 -0.3082
    1W        W33743   1.755  26.807   1.903  0.3735  0.3526 -0.1908
    1W        W33744  28.989  25.059   1.808 -0.3064  0.0884 -0.1597
    1W        W33745   3.713   7.231   6.587 -0.5169  0.1624 -0.3667
    1W        W33746   4.114  25.316   7.264 -0.0383 -0.1414  0.0540
    1W        W33747  15.259  17.974   8.559  0.1764 -0.1171 -0.1740
    1W        W33748  29.247  13.499   6.838  0.0673 -0.2088  0.2582
    1W        W33749  24.263   7.376   7.844 -0.1099 -0.2112 -0.0672
    1W        W33750  22.021   5.783   8.712  0.0488 -0.1002 -0.0165
    1W        W33751  10.888  17.609   7.084 -0.0957 -0.0713 -0.2538
    1W        W33752  28.214  19.284   0.465 -0.0818  0.1522 -0.0774
    1W        W33753  14.463  21.706   0.053  0.0017  0.2011  0.0488
    1W        W33754  24.300  13.098   5.878 -0.0079 -0.1988 -0.1863
    1W        W33755  20.853   0.441   7.225  0.0122 -0.0249  0.2858
    1W        W33756  24.684  18.173   1.591  0.1009  0.0684 -0.0816
    1W        W33757   5.250  20.303   6.304 -0.0426  0.2967  0.1535
    1W        W33758  23.028  27.185   7.034 -0.0374  0.1003 -0.0122
    1W        W33759  29.450   6.200   7.099  0.0291  0.0239 -0.1356
    1W        W33760  15.342  19.660   0.175 -0.0191  0.1851 -0.1673
    1W        W33761  10.016  28.134   1.100  0.4060 -0.1768  0.1054
    1W        W33762   1.985  24.524   5.632 -0.0762 -0.3068 -0.0167
    1W        W33763   9.911  24.434   1.998 -0.2890  0.0842  0.1538
    1W        W33764   3.096  21.753   8.717  0.0734 -0.1534 -0.1793
    1W        W33765  19.452  15.502   1.687  0.0946  0.1236 -0.0278
    1W        W33766  21.490  17.225   7.939 -0.1374 -0.0603 -0.0242
    1W        W33767   4.988   0.391   2.405  0.0204  0.0583 -0.0170
    1W        W33768   9.986   6.356   7.711 -0.2114 -0.0497 -0.1798
    1W        W33769  10.850   7.744   0.743  0.2447 -0.0586 -0.3071
    1W        W33770   2.785  22.859   6.739  0.1997  0.0460  0.1855
    1W        W33771  19.694  11.317   8.520 -0.1420 -0.2882  0.0005
    1W        W33772  22.518  16.984   6.887 -0.1614 -0.0343  0.0497
    1W        W33773  22.836  10.181   7.614 -0.0238 -0.2033 -0.1733
    1W        W33774  17.963   0.140   9.122  0.1544 -0.0642  0.1989
    1W        W33775  22.461   2.813   0.797  0.0270  0.0737  0.1970
    1W        W33776  27.893  25.107   8.169 -0.0515  0.2893  0.4164
    1W        W33777  22.362  17.610   1.110 -0.1318  0.2384  0.1303
    1W        W33778   7.642  23.810   8.081  0.2613  0.1001 -0.0637
    1W        W33779  27.754   6.475   1.561 -0.2992  0.0080  0.1132
    1W        W33780   2.415   4.980   7.936  0.1944 -0.0852  0.0542
    1W        W33781   9.157  18.877   2.667 -0.1767  0.1004  0.2622
    1W        W33782  20.233  25.712   1.905  0.0360  0.1389 -0.0520
    1W        W33783  22.826  10.906   8.123 -0.2185 -0.0878 -0.1237
    1W        W33784   9.795   5.228   3.683 -0.0671 -0.3799  0.0455
    1W        W33785  19.653   6.354   1.659  0.2281 -0.0540 -0.0676
    1W        W33786   7.983  13.256   1.990  0.0131 -0.0504 -0.1761
    1W        W33787  17.545  24.104   9.134  0.2469  0.0789 -0.0306
    1W        W33788  10.935  13.159   7.957  0.3376 -0.1844 -0.3149
    1W        W33789   2.440  22.709   7.426  0.2191  0.1579  0.3468
    1W        W33790   5.078   5.278   7.296  0.0354  0.3288 -0.0899
    1W        W33791  25.677  18.501   5.860  0.2129 -0.0152 -0.2056
    1W        W33792  20.420   8.683   6.998  0.3171  0.0451  0.3330
    1W        W33793  28.869  16.051   0.603 -0.2793  0.0799 -0.0453
    1W        W33794  19.208  24.355   0.608  0.2064 -0.1462  0.1650
    1W        W33795   9.259  23.574   8.899 -0.2343 -0.2659  0.0554
    1W        W33796  27.158  21.405   8.503  0.2446  0.0065 -0.3295
    1W        W33797  16.045  19.805   8.072  0.2498  0.1570 -0.2353
    1W        W33798  26.624  17.038   6.176  0.0636 -0.2950 -0.2030
    1W        W33799   8.449  23.465   5.903 -0.1148 -0.1414  0.1126
    1W        W33800  18.923  23.113   1.670 -0.0783  0.0169 -0.3313
    1W        W33801   1.290  23.286   9.221 -0.3799 -0.1703 -0.0230
    1W        W33802  13.745   4.049   0.822  0.1526  0.2447 -0.1548
    1W        W33803  22.564  26.944   7.179 -0.3247  0.1284  0.1173
    1W        W33804   3.968  17.383   7.638 -0.0564 -0.0286  0.0172
    1W        W33805   0.325  29.432   0.206 -0.4426  0.3222  0.1009
    1W        W33806   9.829  17.844   0.694  0.3595  0.3632 -0.1009
    1W        W33807   9.491  29.697   3.066  0.1052  0.2622  0.2485
    1W        W33808   8.945  22.131   1.327  0.0291  0.1943  0.2146
    1W        W33809   0.905  11.225   8.857  0.3115 -0.3766  0.0394
    1W        W33810   5.372  23.406   6.858  0.0984  0.0657 -0.0392
    1W        W33811   4.712   9.029   1.055 -0.1577 -0.2418  0.1201
    1W        W33812   1.601   5.101   3.396 -0.0629 -0.1714  0.1780
    1W        W33813  12.602  17.044   0.153 -0.0291  0.0639  0.0028
    1W        W33814   0.377  25.598   5.788  0.1476  0.0456  0.0679
    1W        W33815   8.904   5.622   7.546 -0.2021 -0.0118 -0.2351
    1W        W33816  11.948  22.337   6.511  0.1419 -0.2303 -0.1220
    1W        W33817   6.680  17.624   2.553 -0.0605  0.0684  0.1545
    1W        W33818  23.348  19.437   7.712 -0.1042 -0.1788 -0.2092
    1W        W33819   6.695  20.244   6.104  0.1754  0.1722  0.3635
    1W        W33820   7.685   6.126   9.113 -0.2318  0.2209  0.0632
    1W        W33821   9.561   2.855   1.654  0.0830 -0.0996  0.2210
    1W        W33822  27.686  13.193   0.862 -0.3202  0.0564  0.1194
    1W        W33823  26.194  18.181   0.434 -0.1064  0.0148  0.1419
    1W        W33824  17.548  29.972   9.082 -0.1939 -0.1155 -0.2676
    1W        W33825  22.006   7.666   7.121 -0.1860 -0.1373 -0.0047
    1W        W33826  25.601  26.396   8.084  0.0783  0.0186  0.0088
    1W        W33827  16.739  21.607   0.353  0.0731 -0.2101 -0.2125
    1W        W33828   1.622   4.035   7.712 -0.1002 -0.0536  0.1388
    1W        W33829  18.774  19.763   9.006  0.0796  0.0045 -0.4556
    1W        W33830   9.460  20.866   0.136  0.0029  0.1697  0.2356
    1W        W33831  24.607  14.251   9.170 -0.3285  0.2203 -0.1794
    1W        W33832  22.090  22.791   1.659  0.1046  0.1518 -0.2580
    1W        W33833  25.809  17.216   7.127 -0.0098  0.1605  0.1202
    1W        W33834  18.274  11.219   1.037  0.0354 -0.1511  0.1476
    1W        W33835  20.533  21.349   7.479 -0.0943  0.1354 -0.1663
    1W        W33836   6.991  11.045   2.019 -0.3174  0.0786  0.2557
    1W        W33837  29.287   2.544   7.809  0.1135 -0.1359 -0.0967
    1W        W33838   6.232  16.765   5.296 -0.1203 -0.2998 -0.3666
    1W        W33839   8.037   3.672   3.323 -0.1220 -0.1914  0.0159
    1W        W33840  17.691  13.216   7.925  0.0861 -0.1062  0.2438
    1W        W33841  17.036   7.362   7.690 -0.2414 -0.1045 -0.1856
    1W        W33842  18.572  10.863   0.718  0.0582  0.2121  0.0430
    1W        W33843   7.761   0.442   3.148  0.0598  0.1074  0.2853
    1W        W33844  27.754   8.186   0.763  0.0096  0.1218 -0.2174
    1W        W33845  20.066  13.628   8.641  0.0930  0.0840  0.2173
    1W        W33846  12.016   3.932   9.259 -0.0913  0.0856 -0.2278
    1W        W33847  15.110  23.911   0.349  0.1073  0.2134 -0.2257
    1W        W33848   5.006  10.966   7.968  0.1827  0.0566 -0.0457
    1W        W33849   2.380  15.023   6.545  0.1994 -0.0166  0.0769
    1W        W33850  15.706  14.927   2.121 -0.0644 -0.0490 -0.0029
    1W        W33851  29.001   2.844   8.100 -0.1143  0.0128  0.2948
    1W        W33852   3.760  23.055   6.497  0.1699  0.3654 -0.0081
    1W        W33853   4.864  23.526   0.633  0.3526 -0.1637 -0.4983
    1W        W33854   5.782  14.679   7.425  0.1638  0.3507  0.1103
    1W        W33855   3.026   9.883   7.354  0.2444 -0.2630 -0.0495
    1W        W33856  28.099   7.138   0.336  0.1160  0.4709 -0.3358
    1W        W33857  29.950  18.711   8.137 -0.0851  0.0875  0.0050
    1W        W33858   3.840   5.077   0.710  0.1414 -0.2108  0.0116
    1W        W33859   5.700  21.854   7.504 -0.0090 -0.1331 -0.2440
    1W        W33860   6.659   8.074   1.374  0.0199 -0.0131 -0.1385
    1W        W33861   9.976   6.979   3.055  0.0346  0.0787  0.2367
    1W        W33862   4.171   8.377   8.280  0.1199 -0.1445  0.0361
    1W        W33863   2.675  17.326   7.690 -0.0398 -0.0845  0.1489
    1W        W33864  12.595  20.241   1.915 -0.0584  0.0005  0.0193
    1W        W33865   8.499  25.448   2.242  0.0939  0.2268  0.5380
    1W        W33866  24.576   2.554   1.019  0.0094  0.1501  0.4840
    1W        W33867   7.240   2.913   8.922 -0.0824 -0.0965  0.0800
    1W        W33868  28.601  23.290   0.885  0.2953 -0.1990 -0.1910
    1W        W33869  18.248  15.192   7.193 -0.2844  0.2640  0.0331
    1W        W33870  23.588  20.009   0.058  0.0381  0.2720  0.3601
    1W        W33871  23.674  16.394   7.265  0.2513  0.0907 -0.3586
    1W        W33872  16.119   2.420   3.553  0.0013  0.1070  0.1410
    1W        W33873  20.020  24.278   8.473  0.2710  0.1963 -0.1294
    1W        W33874  13.895   4.317   3.173 -0.0682  0.2491  0.0915
    1W        W33875  19.549   3.490   9.205  0.0261  0.3024  0.2238
    1W        W33876  19.523  19.013   7.753  0.0964  0.0734  0.0094
    1W        W33877   8.056  23.684   2.458 -0.2011  0.1357 -0.0215
    1W        W33878   4.798   8.431   0.823  0.0612  0.3374  0.0136
    1W        W33879  14.677   5.057   0.676  0.1013 -0.0377  0.2787
    1W        W33880  29.953   3.746   0.635  0.4130 -0.0391 -0.1344
    1W        W33881   8.705   9.796   0.931  0.2286 -0.1284 -0.0946
    1W        W33882  10.158  18.137   1.794  0.0553  0.3195 -0.1058
    1W        W33883  29.391  16.422   5.813 -0.3563  0.1144 -0.0588
    1W        W33884   3.474   3.658   6.513  0.2323 -0.1459 -0.1052
    1W        W33885   7.639  22.563   0.477 -0.3145  0.0435  0.0881
    1W        W33886   5.688  24.544   2.150 -0.2497  0.1355 -0.0652
    1W        W33887  13.711   8.100   1.283  0.0141 -0.0466 -0.2439
    1W        W33888  21.800   1.886   2.211 -0.2601  0.3111  0.1205
    1W        W33889  27.664  10.728   8.426  0.0382  0.1254 -0.0781
    1W        W33890   2.101   5.832   7.557  0.1995  0.0291  0.0048
    1W        W33891   8.418   3.295   1.027 -0.1896 -0.1217  0.0304
    1W        W33892   3.580  18.522   5.659 -0.0064 -0.0863  0.1525
    1W        W33893  27.294  24.220   7.700  0.0910 -0.1638  0.1471
    1W        W33894   8.528  23.006   8.344 -0.3303  0.0338 -0.0296
    1W        W33895  25.268  29.021   1.397 -0.1913  0.0451 -0.1608
    1W        W33896   0.338   6.732   7.960 -0.2992 -0.2603 -0.3235
    1W        W33897  26.807   5.431   8.541  0.0736 -0.0764  0.1491
    1W        W33898  25.002   5.765   0.761 -0.1073 -0.2183  0.0333
    1W        W33899  28.695  22.155   9.200 -0.0082 -0.0268 -0.0537
    1W        W33900  27.412  14.916   7.695  0.1037  0.0891  0.2788
    1W        W33901   0.209   9.952   1.244 -0.2300  0.2128  0.0678
    1W        W33902  27.261  21.633   6.804  0.0041  0.0406  0.0658
    1W        W33903  25.911  10.185   6.269 -0.4482 -0.1884 -0.0881
    1W        W33904  23.881  22.939   0.301  0.0929  0.0551  0.1670
    1W        W33905   1.305  20.769   8.436  0.0659 -0.0890 -0.3693
    1W        W33906  28.102   3.951   7.500 -0.1909 -0.0283 -0.0858
    1W        W33907  10.089  10.594   8.606 -0.0344 -0.2186 -0.0573
    1W        W33908   4.844  19.098   5.952 -0.0950  0.2024 -0.1355
    1W        W33909  10.228  15.648   2.855  0.2706  0.1338  0.0789
    1W        W33910  18.726  20.273   6.768 -0.1323 -0.0107 -0.0831
    1W        W33911  29.786  12.662   7.434 -0.2420  0.1428  0.0135
    1W        W33912  11.724  10.118   8.692 -0.1253  0.1412 -0.0684
    1W        W33913  11.063  28.616   7.470 -0.1309  0.0774 -0.1381
    1W        W33914  12.724  26.484   7.214  0.0280 -0.0265  0.0280
    1W        W33915  29.678  12.163   1.118  0.0161  0.1229  0.3375
    1W        W33916  14.509   6.072   0.675  0.0585  0.3334 -0.1372
    1W        W33917  22.780  14.686   1.349  0.0886 -0.1655  0.0218
    1W        W33918  25.964   4.459   2.906 -0.3767  0.2279  0.0595
    1W        W33919  20.820  23.020   8.126 -0.0484 -0.2811  0.0016
    1W        W33920  22.221  21.804   7.790  0.2797 -0.1884 -0.1412
    1W        W33921  21.763  24.536   9.204 -0.0034  0.0109 -0.1689
    1W        W33922  10.483   1.952   9.080 -0.0682  0.2088 -0.1200
    1W        W33923   1.283  27.243   2.225  0.2021  0.1947  0.0893
    1W        W33924  19.361  30.135   2.026  0.0743  0.0437 -0.0966
    1W        W33925   5.340   4.278   1.251 -0.0862  0.1260  0.2798
    1W        W33926  10.159  28.500   7.268  0.4729 -0.0221  0.1634
    1W        W33927  18.549  23.526   0.515 -0.0870 -0.1184 -0.0242
    1W        W33928  27.029  11.827   1.003 -0.0014  0.4561  0.1486
    1W        W33929  20.300   4.285   6.919  0.1980  0.1842  0.0926
    1W        W33930  15.037   6.002   0.808  0.4599 -0.1272 -0.0886
    1W        W33931   2.221  21.092   7.211 -0.1191 -0.0803 -0.1746
    1W        W33932   2.276   0.509   8.696 -0.0579  0.0502  0.3588
    1W        W33933  10.005  11.701   7.484  0.1902  0.0021 -0.0118
    1W        W33934  28.897   6.644   6.676  0.2712 -0.0062 -0.2723
    1W        W33935   8.477   3.952   0.519 -0.0560 -0.1280 -0.0873
    1W        W33936   7.436  20.982   6.355 -0.2258  0.2878 -0.0547
    1W        W33937   1.127   9.627   1.551 -0.0924 -0.1510 -0.0161
    1W        W33938  14.100  28.301   8.970 -0.2158  0.2639 -0.0700
    1W        W33939  24.211  15.411   1.407 -0.2569 -0.2572  0.1120
    1W        W33940   4.747  15.325   8.519  0.1194  0.1591  0.1338
    1W        W33941   2.316  29.396   0.996  0.1967  0.3010  0.0737
    1W        W33942   3.202   1.014   2.097 -0.1202 -0.2335 -0.0688
    1W        W33943  18.848   3.971   0.531  0.1412 -0.1582  0.2214
    1W        W33944  24.756  27.472   7.827 -0.0153  0.2031  0.0247
    1W        W33945   0.819   1.321   8.218 -0.0657 -0.0896 -0.0025
    1W        W33946  23.430  25.315   2.367 -0.1005 -0.0975  0.0464
    1W        W33947   7.449   3.995   7.437 -0.4320 -0.1284 -0.1993
    1W        W33948  24.643  11.959   7.850  0.1288 -0.0821 -0.0614
    1W        W33949   9.992  21.991   1.356  0.1898  0.2731 -0.0456
    1W        W33950  14.835   3.343   2.943 -0.3127 -0.4385  0.1693
    1W        W33951  20.833  10.675   8.381 -0.1800 -0.2816  0.0971
    1W        W33952  14.197  26.484   1.765 -0.0031 -0.2421 -0.1022
    1W        W33953   6.856  27.699   0.625 -0.3137  0.0359 -0.1509
    1W        W33954  11.853  14.182   7.705  0.0976  0.0401 -0.4184
    1W        W33955   8.913   8.906   0.247  0.1269 -0.0990  0.1799
    1W        W33956  28.658  25.689   8.948  0.2598  0.0488  0.1335
    1W        W33957  28.981   1.322   1.099  0.3612 -0.1606  0.1648
    1W        W33958   2.186  25.496   1.473 -0.0675 -0.0246  0.3356
    1W        W33959   7.971  10.447   1.074  0.3911  0.2476 -0.2355
    1W        W33960  10.428   7.731   7.895  0.0797  0.1890  0.3514
    1W        W33961   3.051  27.354   1.219  0.0894  0.0762 -0.1489
    1W        W33962  30.131  10.777   0.738 -0.1629 -0.1400  0.0465
    1W        W33963   5.109   9.200   7.303  0.2291  0.0402  0.1792
    1W        W33964   9.237   5.710   8.508 -0.1769  0.0979 -0.1585
    1W        W33965  18.563  13.961   8.056 -0.0474  0.1504 -0.3211
    1W        W33966  18.664  12.731   0.046 -0.2980  0.1118 -0.0185
    1W        W33967  19.360  23.414   0.826  0.1149 -0.0416 -0.1708
    1W        W33968  26.145  18.190   9.279  0.1401 -0.1892  0.1208
    1W        W33969  14.799   3.718   1.879  0.1113  0.0753  0.0991
    1W        W33970   4.293  11.480   7.284 -0.2248 -0.0267  0.0943
    1W        W33971  21.591  28.560   9.226 -0.3438 -0.0484 -0.1979
    1W        W33972   4.107  26.536   1.565 -0.3052  0.0944  0.1651
    1W        W33973  26.907  15.539   6.107 -0.0146 -0.1190 -0.1045
    1W        W33974  25.429  17.017   6.760 -0.0858  0.2970 -0.3150
    1W        W33975  20.483  23.408   6.807  0.0147 -0.0334  0.1888
    1W        W33976  10.742   6.437   1.397  0.1137 -0.0250 -0.1011
    1W        W33977  15.536   1.812   0.864 -0.1252  0.0016  0.0769
    1W        W33978  16.099  27.459   0.206 -0.0542 -0.3338 -0.0784
    1W        W33979  26.555   7.064   2.760  0.2913 -0.2093  0.2794
    1W        W33980  19.234   8.951   7.572  0.2167 -0.0086 -0.0273
    1W        W33981  23.873   3.693   8.677 -0.4919  0.2813 -0.1635
    1W        W33982   7.274   0.491   2.873  0.0968  0.0830  0.2079
    1W        W33983  23.052   9.883   9.010 -0.0556  0.0724 -0.0065
    1W        W33984  18.898  12.362   1.354  0.0213  0.1641  0.1981
    1W        W33985  15.924  14.334   7.306  0.0037  0.0010 -0.5074
    1W        W33986  28.519  26.772   2.581  0.0134  0.1284  0.2304
    1W        W33987   1.979  14.371   0.007 -0.0778 -0.2082  0.1685
    1W        W33988  21.297  10.326   6.847 -0.2249 -0.0806  0.1640
    1W        W33989  16.574  10.599   0.406  0.1588  0.0040 -0.2081
    1W        W33990   4.814  14.226   9.069  0.2008  0.2339 -0.0643
    1W        W33991   1.093  26.883   6.971  0.2360 -0.0160 -0.1370
    1W        W33992  19.797  27.875   7.764 -0.0206  0.0928 -0.0589
    1W        W33993   7.240  24.944   0.179  0.1070 -0.3097 -0.0049
    1W        W33994  28.852   8.575   0.364 -0.0704  0.3615 -0.1344
    1W        W33995  18.868   3.434   1.379 -0.2474 -0.0897  0.0950
    1W        W33996  14.337  12.794   8.013  0.3160 -0.0099  0.4453
    1W        W33997   0.551  27.010   7.778  0.0776 -0.0630  0.3251
    1W        W33998   3.546   0.513   1.371 -0.2757 -0.1794 -0.0458
    1W        W33999  12.731  20.492   2.352  0.3569  0.0481  0.1386
    1W        W34000  28.076  28.077   0.447 -0.1444 -0.0766 -0.1659
    1W        W34001  20.924  22.619   1.885 -0.1469 -0.0490 -0.0161
    1W        W34002   6.822  24.473   8.849  0.1705 -0.5022 -0.1315
    1W        W34003  11.755  27.681   2.553  0.1348 -0.0675  0.0497
    1W        W34004   1.390   7.865   1.483 -0.0136  0.2668 -0.1941
    1W        W34005   9.809  11.436   1.446 -0.1321 -0.0554  0.2208
    1W        W34006  11.992  22.028   0.103 -0.0496 -0.1421  0.4815
    1W        W34007  15.711   0.433   3.056 -0.2338 -0.0213  0.1282
    1W        W34008   2.113  28.157   0.737  0.0557  0.2376 -0.0092
    1W        W34009  11.296  10.977   1.599 -0.0159  0.4776  0.1549
    1W        W34010  24.927   1.430   9.249  0.1186  0.0613  0.0437
    1W        W34011   3.901  21.071   7.933 -0.0033  0.1868  0.0142
    1W        W34012   8.634  25.635   1.804  0.4035  0.2350 -0.0271
    1W        W34013  29.228  12.739   8.902  0.1217  0.1554  0.2377
    1W        W34014  27.237  15.048   8.201 -0.0546  0.0870 -0.0925
    1W        W34015  21.503  12.211   6.606 -0.0822 -0.0169  0.2113
    1W        W34016  14.914  10.169   8.717 -0.0785  0.1056 -0.1804
    1W        W34017   3.477   5.292   1.709  0.0024  0.2766  0.3074
    1W        W34018   5.795   9.643   9.248  0.0794 -0.2191  0.1085
    1W        W34019  10.603  13.008   8.635  0.2426  0.2759 -0.1898
    1W        W34020   5.450   5.266   1.593  0.0843 -0.0959  0.2377
    1W        W34021  20.678  12.406   1.313  0.0199  0.1366  0.1995
    1W        W34022  25.792  16.529   0.228  0.2765 -0.1108  0.0862
    1W        W34023  27.707   9.686   9.174 -0.2925 -0.1150 -0.0774
    1W        W34024  17.272  15.066   0.480  0.2227  0.2361 -0.2396
    1W        W34025  11.212  24.235   7.011  0.0532  0.0598  0.0852
    1W        W34026   7.196   6.983   3.252  0.0252 -0.0243  0.2212
    1W        W34027  21.098   5.197   0.517  0.1068 -0.0600 -0.1605
    1W        W34028  29.207  15.200   9.001 -0.1653 -0.2467 -0.2279
    1W        W34029  14.635  20.386   7.106  0.0552  0.1868 -0.0675
    1W        W34030  13.460  19.996   9.338  0.1615 -0.0466 -0.0767
    1W        W34031  16.782   4.954   7.587 -0.1498 -0.0776 -0.2384
    1W        W34032  14.923  26.980   7.555 -0.0454  0.4611 -0.1560
    1W        W34033   8.435  17.613   8.429 -0.3424  0.0820 -0.0707
    1W        W34034   9.310   6.430   0.459 -0.2269 -0.3879  0.0590
    1W        W34035  23.876  29.452   0.945  0.0255 -0.2044  0.2326
    1W        W34036  30.079   5.862   9.239  0.0357  0.0865 -0.3896
    1W        W34037   0.600   1.575   7.849 -0.1314 -0.0455  0.0918
    1W        W34038  28.462   6.590   7.432  0.0484  0.1063 -0.1179
    1W        W34039   9.199  27.288   0.149  0.1485  0.1188 -0.1862
    1W        W34040  19.172  17.850   8.562 -0.0297  0.2674 -0.0271
    1W        W34041   8.899  26.158   8.771 -0.5955 -0.2724 -0.2205
    1W        W34042  10.047  11.597   2.298  0.0151  0.0468 -0.1785
    1W        W34043  17.091  22.506   7.142  0.1591  0.2633 -0.1164
    1W        W34044  17.107   0.567   7.154 -0.0562  0.1117 -0.0374
    1W        W34045   4.396   0.876   2.328  0.2211 -0.0850 -0.0413
    1W        W34046  11.170  12.495   1.322 -0.1960 -0.1082 -0.2083
    1W        W34047   6.008  21.566   8.382  0.2516 -0.0663  0.1607
    1W        W34048   2.403   0.144   9.066 -0.3918 -0.0879  0.1367
    1W        W34049   5.402  25.906   6.348  0.1572  0.2393 -0.0840
    1W        W34050  12.388   2.392   8.182  0.4101 -0.0750 -0.0329
    1W        W34051  10.001   7.323   8.058  0.2227 -0.0581 -0.3319
    1W        W34052  12.371  27.548   6.587 -0.1870  0.3122 -0.0071
    1W        W34053  19.746  16.426   7.706  0.3202 -0.0667 -0.0886
    1W        W34054  27.961  14.546   8.512  0.2503  0.0868 -0.0256
    1W        W34055  20.886   1.629   1.037  0.1380  0.0203 -0.0042
    1W        W34056   9.285  27.581   3.093 -0.0677  0.0671 -0.2854
    1W        W34057  22.045  26.678   7.843  0.1858 -0.1621  0.2462
    1W        W34058  25.330  17.145   5.594  0.2263 -0.4702  0.1067
    1W        W34059  22.294  19.695   1.564  0.0333 -0.2378  0.0862
    1W        W34060  13.841  15.852   7.967 -0.1198 -0.0793 -0.1630
    1W        W34061   0.166  15.141   7.385 -0.1891 -0.0450 -0.0664
    1W        W34062   5.562  10.868   6.317  0.2038  0.3477 -0.0248
    1W        W34063   6.490  16.240   7.375 -0.1705  0.0357  0.0667
    1W        W34064   7.039   8.323   7.428  0.0390 -0.1842  0.2771
    1W        W34065  24.904  11.173   7.123  0.1852  0.1415  0.0963
    1W        W34066   6.136   9.809   0.754  0.1487  0.3452 -0.1359
    1W        W34067  13.632   7.791   2.707  0.2493 -0.0387 -0.1664
    1W        W34068  28.583  17.806   6.139  0.0983  0.3256 -0.0571
    1W        W34069   3.414  20.090   0.510  0.1028  0.2229  0.1076
    1W        W34070  20.185  20.650   8.357 -0.0857  0.1369  0.0612
    1W        W34071  30.030  21.709   6.703  0.1640 -0.1659 -0.1510
    1W        W34072  13.980  21.566   6.843 -0.1488 -0.1172 -0.2307
    1W        W34073  25.218  21.076   8.504  0.0031 -0.1613  0.0035
    1W        W34074  24.538  13.693   9.275  0.0660 -0.0189  0.0954
    1W        W34075  20.022   5.995   2.164 -0.0096  0.0826 -0.2435
    1W        W34076   4.272  29.735   0.614 -0.2017 -0.2081  0.0847
    1W        W34077   3.740  14.090   1.734  0.4677 -0.0849 -0.1210
    1W        W34078  15.641  21.323   8.138  0.4301 -0.1471 -0.2875
    1W        W34079  16.856  23.314   7.461  0.0480  0.0169 -0.2158
    1W        W34080  13.769  21.619   1.342  0.0558  0.1334  0.3722
    1W        W34081   9.859   4.833   7.165  0.1395 -0.0150  0.0257
    1W        W34082  25.004   0.662   0.928  0.0174 -0.1581  0.1708
    1W        W34083   0.245  21.313   5.398 -0.0348 -0.0062 -0.0209
    1W        W34084   8.128  28.467   8.963 -0.2411 -0.1765 -0.2204
    1W        W34085  25.461  28.041   2.321  0.1195  0.1093 -0.3466
    1W        W34086  15.295  26.653   0.544  0.1028  0.4261  0.1652
    1W        W34087  24.261  24.423   2.683 -0.0950  0.1610 -0.1435
    1W        W34088  17.594  24.961   7.636 -0.1102 -0.3004  0.3145
    1W        W34089  17.682  19.443   7.570 -0.2033 -0.0227 -0.0327
    1W        W34090   9.806   8.444   3.505  0.1265  0.3824  0.0636
    1W        W34091   3.650  28.119   6.642  0.0686 -0.0344 -0.0373
    1W        W34092  11.848   1.254   7.467 -0.3119  0.1977 -0.0376
    1W        W34093  22.040  29.232   7.245  0.0036 -0.1257 -0.0009
    1W        W34094  25.348  20.379   1.672  0.0960 -0.1989 -0.1423
    1W        W34095  23.422   5.925   1.191 -0.2275 -0.0445  0.1806
    1W        W34096  22.203  22.300   1.526  0.1409  0.0686  0.2854
    1W        W34097   8.857  13.249   7.533  0.1341 -0.3034  0.0346
    1W        W34098  11.055  15.051   0.068 -0.0330  0.1909 -0.3250
    1W        W34099   3.291  18.116   7.830  0.0457 -0.0348 -0.2730
    1W        W34100  22.552  16.163   7.879  0.0058 -0.0068 -0.1092
    1W        W34101   1.182  12.429   1.850 -0.3402  0.3413 -0.0169
    1W        W34102  26.171  21.885   9.286 -0.0726 -0.1244  0.1334
    1W        W34103  27.087  28.947   2.390 -0.0105 -0.1937  0.0482
    1W        W34104   5.852  26.206   1.938  0.0295 -0.0979  0.1744
    1W        W34105  15.358  30.143   3.005 -0.1661  0.0475  0.4425
    1W        W34106  20.547  18.476   0.319 -0.0280  0.1936  0.0523
    1W        W34107  29.690  21.558   1.184 -0.1041  0.0322 -0.3942
    1W        W34108   0.562  21.691   6.919  0.1217 -0.0512  0.2647
    1W        W34109  10.589  18.264   6.528 -0.1643  0.0177  0.2226
    1W        W34110   8.446   5.151   9.310  0.0948 -0.1429  0.0178
    1W        W34111  12.411   5.857   9.381 -0.0319  0.0524 -0.2583
    1W        W34112  26.308   3.688   2.715  0.2247  0.1323 -0.0631
    1W        W34113  11.028  24.233   7.457  0.3729  0.3260 -0.0171
    1W        W34114  10.445  20.552   1.628  0.1975  0.3778  0.1961
    1W        W34115  10.432   5.330   7.626 -0.0472 -0.4486  0.2389
    1W        W34116  10.486   2.678   1.803 -0.5196  0.2310 -0.2209
    1W        W34117  14.019  21.345   1.974  0.0382 -0.0446  0.4432
    1W        W34118   6.778   5.070   0.091  0.1689 -0.1060 -0.0306
    1W        W34119   4.880   7.071   8.262 -0.1677  0.0046 -0.0486
    1W        W34120  13.799  29.031   7.875 -0.2583  0.1990  0.0480
    1W        W34121   0.094  21.926   8.864  0.0052 -0.0864  0.0094
    1W        W34122  18.865  23.821   8.445 -0.2299  0.0920  0.0691
    1W        W34123  10.068  10.954   9.369  0.0364 -0.1679  0.0044
    1W        W34124  17.777  22.297   8.561 -0.1013  0.0643  0.1716
    1W        W34125  17.908  18.766   0.327 -0.1058 -0.0292  0.1196
    1W        W34126  17.942   6.501   6.669 -0.3703  0.2115 -0.0436
    1W        W34127   4.238  23.860   7.664 -0.0169 -0.1552 -0.1324
    1W        W34128   9.477  28.309   2.683 -0.0282  0.2934  0.1414
    1W        W34129  22.352  13.001   7.510  0.1856 -0.2029  0.0398
    1W        W34130   2.901  13.710   8.941 -0.4087 -0.0460  0.0264
    1W        W34131  20.920   0.027   9.060 -0.2734 -0.1764 -0.3575
    1W        W34132  27.419   1.702   8.491 -0.0735 -0.2100  0.0672
    1W        W34133  18.252   8.087   2.194 -0.1902 -0.3399 -0.2468
    1W        W34134   3.673  24.370   0.932 -0.1078  0.0785  0.0334
    1W        W34135  29.627  17.538   6.194 -0.3234 -0.0732  0.1700
    1W        W34136  29.573  27.158   3.514  0.0020 -0.0537  0.0733
    1W        W34137   6.861  21.063   8.726  0.0330 -0.5789 -0.0233
    1W        W34138  15.679  19.495   8.567  0.1504 -0.1332 -0.0514
    1W        W34139   7.297   2.775   3.212  0.0567 -0.1179 -0.3467
    1W        W34140  19.601   8.602   0.221  0.3385  0.1430 -0.4603
    1W        W34141  25.970   5.311   7.640  0.0930 -0.2529  0.1294
    1W        W34142  22.668  26.342   6.723 -0.2684  0.1802  0.0807
    1W        W34143  13.740  12.688   2.021 -0.1543  0.0087 -0.1142
    1W        W34144   8.429  20.026   6.080  0.0783  0.1029  0.1842
    1W        W34145  10.159  12.926   1.354 -0.0108 -0.1829  0.2643
    1W        W34146  29.995   1.234   2.037  0.2107  0.3809  0.0032
    1W        W34147   6.519  28.962   8.317  0.0720 -0.2772 -0.0341
    1W        W34148  26.728  12.818   2.163 -0.2641 -0.1195 -0.0386
    1W        W34149  18.488   8.343   2.558 -0.2351 -0.2316 -0.0756
    1W        W34150   4.534   1.758   2.437  0.1358 -0.0225 -0.1899
    1W        W34151   2.701   5.786   8.720 -0.0161 -0.1208 -0.0427
    1W        W34152  10.119   3.839   0.380  0.1873  0.1403 -0.0104
    1W        W34153   7.478  11.300   2.068  0.0657  0.0675 -0.0451
    1W        W34154  20.263   7.487   8.827 -0.2266  0.1751 -0.0537
    1W        W34155   3.732  19.349   0.135  0.1504 -0.3613  0.1909
    1W        W34156   8.113  29.285   2.876 -0.2940  0.3281  0.0858
    1W        W34157  16.042  27.062   0.476 -0.2695 -0.2345  0.0045
    1W        W34158  10.841  12.183   7.080  0.1149  0.0472  0.0309
    1W        W34159  27.526  22.586   0.661 -0.1518 -0.3809 -0.0219
    1W        W34160  28.432   8.407   7.805  0.3609 -0.0005 -0.0121
    1W        W34161  12.226   8.993   3.089  0.1749 -0.0379  0.1124
    1W        W34162  12.614   7.653   0.585  0.0822 -0.3317 -0.0058
    1W        W34163  16.562  13.200   0.542  0.0394  0.2664  0.0435
    1W        W34164  24.952   9.368   1.494 -0.0564  0.1612  0.4114
    1W        W34165   7.430   4.451   7.655  0.0805 -0.0213 -0.1781
    1W        W34166  26.590  28.009   1.887 -0.0186 -0.1132 -0.0758
    1W        W34167  27.104  29.980   2.309 -0.1975  0.4251  0.2433
    1W        W34168   7.628  16.198   7.916  0.1788  0.0031  0.1098
    1W        W34169  27.454   2.649   7.048  0.0229  0.1602 -0.2349
    1W        W34170  12.297  28.440   8.929  0.2459 -0.1109 -0.0684
    1W        W34171  21.239  28.184   1.854  0.0674 -0.2106  0.0603
    1W        W34172  11.411   6.458   0.680 -0.1502  0.0200 -0.1020
    1W        W34173   4.112   0.148   8.060 -0.0947  0.0613 -0.1357
    1W        W34174   4.223  10.872   1.088  0.2383  0.4122  0.1329
    1W        W34175   1.396  12.019   7.638 -0.0579 -0.3043  0.2769
    1W        W34176  12.870  17.863   1.178 -0.2165 -0.2204  0.2040
    1W        W34177   6.345  12.198   0.945 -0.0201 -0.0041 -0.1611
    1W        W34178  23.793  29.545   8.128 -0.2588 -0.0671 -0.1647
    1W        W34179  29.193   3.969   8.036 -0.4298  0.0914 -0.0342
    1W        W34180   2.043  27.197   9.219 -0.0035  0.4049  0.2375
    1W        W34181  13.206  11.712   7.733 -0.1090 -0.1228 -0.0873
    1W        W34182  26.384  19.257   7.248  0.0910  0.0937  0.0660
    1W        W34183   3.842  24.300   9.394 -0.0834 -0.0703  0.6920
    1W        W34184  15.041  18.941   1.639 -0.1199  0.0754  0.3306
    1W        W34185   9.583  20.560   8.845  0.1754  0.0933  0.1962
    1W        W34186  25.882   5.434   1.622  0.0604 -0.0651  0.5218
    1W        W34187   1.751  16.429   7.625 -0.2457  0.1506  0.1222
    1W        W34188   2.822   8.480   7.026 -0.1646  0.1123 -0.0586
    1W        W34189  23.366  24.845   2.133 -0.0729 -0.2664 -0.3391
    1W        W34190  21.261  15.158   0.269  0.1152 -0.0591  0.0186
    1W        W34191  14.320  20.093   0.205 -0.3158  0.1193 -0.1117
    1W        W34192  29.835   9.395   2.178 -0.1823 -0.1786 -0.1105
    1W        W34193  19.160  11.284   7.038 -0.2224  0.1914 -0.0625
    1W        W34194   1.412  17.720   6.005 -0.1741 -0.0074  0.1514
    1W        W34195   4.338  23.916   8.738  0.1860  0.1576  0.0709
    1W        W34196  15.783  19.697   9.307 -0.2043 -0.2082 -0.1184
    1W        W34197  17.338  11.848   1.152 -0.0699  0.5028  0.1414
    1W        W34198  12.529  24.481   1.255  0.0746  0.3105  0.2097
    1W        W34199   1.058  14.122   7.805 -0.1489  0.0568 -0.1851
    1W        W34200   4.917  12.917   1.963  0.0531 -0.2854 -0.0786
    1W        W34201  29.520  29.446   1.104 -0.2158 -0.2749  0.1893
    1W        W34202   9.033  21.244   0.185 -0.1248 -0.0916  0.0790
    1W        W34203  12.609  10.634   0.425  0.0750  0.4939  0.0935
    1W        W34204  12.129  26.476   8.417  0.2596  0.1017  0.0882
    1W        W34205  12.897  16.835   8.684  0.1922  0.2097 -0.1128
    1W        W34206  26.330   3.900   7.187 -0.4080 -0.1164  0.1990
    1W        W34207   0.887   2.026   7.161  0.0094 -0.0122  0.4294
    1W        W34208   9.910   2.542   6.540  0.1478 -0.2047 -0.2045
    1W        W34209  20.296  23.152   7.864  0.0681  0.0783  0.0230
    1W        W34210  27.429  25.346   8.222  0.0348 -0.0847 -0.2085
    1W        W34211  19.617  10.585   8.536 -0.2393 -0.2013  0.1731
    1W        W34212  20.882   5.866   8.449 -0.2488 -0.1639 -0.0689
    1W        W34213   4.207  20.711   7.031 -0.0333  0.0936 -0.0207
    1W        W34214   2.322   3.394   1.163 -0.1245  0.3882 -0.2406
    1W        W34215  20.156  13.117   7.438 -0.1487  0.1125 -0.1332
    1W        W34216  25.210  11.980   6.254  0.4472  0.2767 -0.4027
    1W        W34217   1.825  28.285   0.287 -0.0215  0.0369 -0.1338
    1W        W34218  15.703   3.229   7.573  0.0110 -0.2389 -0.2232
    1W        W34219  18.126  10.056   2.429 -0.2147  0.0311  0.2274
    1W        W34220   1.712  25.940   7.573  0.1800 -0.1474  0.2751
    1W        W34221   7.155  10.795   8.242  0.1011 -0.0474 -0.1597
    1W        W34222  14.287  10.608   8.045  0.0601  0.4011  0.2427
    1W        W34223   2.265   4.874   2.810 -0.1092 -0.1143 -0.4194
    1W        W34224  14.376  12.114   0.527  0.0431 -0.0812  0.2134
    1W        W34225  19.248  24.639   7.866 -0.1508 -0.2327 -0.1639
    1W        W34226  29.612  29.226   1.914  0.3690  0.0347  0.0237
    1W        W34227  14.668   4.066   1.395  0.1311 -0.0210  0.0940
    1W        W34228   7.581  10.066   7.761 -0.1439  0.0505 -0.2308
    1W        W34229   2.360  17.579   9.241 -0.1318 -0.0584 -0.0717
    1W        W34230   0.041   8.770   6.437  0.0110 -0.4794  0.0639
    1W        W34231  15.916  21.531   7.803  0.1896 -0.0879 -0.1635
    1W        W34232  13.910  26.620   6.854  0.4359 -0.1002  0.1094
    1W        W34233  28.634   7.216   7.406  0.0225 -0.2835 -0.0596
    1W        W34234  18.295  11.587   9.254  0.1926  0.4387  0.1484
    1W        W34235  25.403   5.743   2.430  0.0730  0.2139 -0.1698
    1W        W34236   5.668   7.878   7.462  0.1084  0.0562 -0.0713
    1W        W34237  25.347   4.655   9.061  0.0247 -0.0433 -0.3210
    1W        W34238  16.560  28.882   0.741 -0.1122  0.1732  0.2398
    1W        W34239   1.117  17.143   5.102  0.0031  0.2318 -0.1003
    1W        W34240   2.456  29.796   9.098 -0.0012 -0.0499 -0.3059
    1W        W34241   5.331  24.318   6.731 -0.0689  0.3308  0.1108
    1W        W34242   2.725  26.135   8.758  0.2778 -0.1967 -0.0991
    1W        W34243  23.821  29.724   1.460  0.3567  0.0907  0.2912
    1W        W34244  26.853  29.497   3.098 -0.0448 -0.5146  0.0653
    1W        W34245   2.820  15.887   7.767 -0.2981 -0.1868 -0.2659
    1W        W34246  13.821  20.767   1.398 -0.1074 -0.0366  0.0680
    1W        W34247  17.620   5.179   0.893 -0.0607 -0.1957  0.1411
    1W        W34248  15.757  15.267   1.670  0.0026 -0.0254 -0.0238
    1W        W34249   6.732   3.619   0.836  0.1134 -0.3857  0.0243
    1W        W34250  13.498   1.965   3.074  0.0699  0.3776  0.0485
    1W        W34251   6.423  28.514   0.097 -0.0150 -0.1442 -0.2042
    1W        W34252   1.573  15.904   7.023 -0.3144 -0.0213  0.1809
    1W        W34253  12.235  27.918   0.191 -0.2014 -0.2608 -0.3847
    1W        W34254  21.107   5.789   7.508  0.0977  0.2373 -0.1640
    1W        W34255   3.942   5.512   8.546 -0.0900  0.1083 -0.2818
    1W        W34256   3.933  27.911   7.676 -0.0505 -0.4572  0.2555
    1W        W34257  22.895  13.537   6.696 -0.4105  0.4176  0.1150
    1W        W34258   3.802  20.515   7.366 -0.0264 -0.0803  0.0981
    1W        W34259   0.038   2.392   0.148 -0.0163 -0.3169 -0.1729
    1W        W34260   0.960  21.178   1.686  0.0320 -0.3649 -0.1202
    1W        W34261  23.642   8.119   2.593  0.1761 -0.2037  0.0689
    1W        W34262  12.088  26.896   7.592 -0.2451 -0.0460  0.1046
    1W        W34263   2.562   0.227   0.155 -0.0008  0.2342  0.0577
    1W        W34264  17.133  25.314   8.654 -0.0443 -0.2220  0.1306
    1W        W34265  27.157  18.999   7.254 -0.2738 -0.2275 -0.3047
    1W        W34266  24.043  26.023   2.371  0.0819  0.0604 -0.2610
    1W        W34267   5.675  22.784   9.304  0.2960 -0.1242 -0.2005
    1W        W34268   1.335  18.311   0.477  0.0550  0.0730  0.0747
    1W        W34269   1.557   2.239   7.595  0.0411 -0.2377  0.0663
    1W        W34270  25.085  27.380   0.600  0.0392  0.3486 -0.0466
    1W        W34271  15.902  23.909   6.833  0.0991 -0.0819 -0.2099
    1W        W34272   2.126  18.500   0.679  0.0216 -0.0531  0.3305
    1W        W34273  27.208  10.689   8.158 -0.0370 -0.0079  0.0179
    1W        W34274  14.155  23.199   8.740 -0.0513  0.1027 -0.3500
    1W        W34275   3.548  22.133   8.000  0.1427  0.0556 -0.0991
    1W        W34276  18.234  29.641   8.346 -0.1390  0.2318  0.0384
    1W        W34277   4.545  19.987   7.503  0.0065 -0.2015 -0.1357
    1W        W34278  18.159  18.634   8.117 -0.0709 -0.2554 -0.0864
    1W        W34279   8.682  14.978   0.913  0.1863 -0.0676  0.0166
    1W        W34280   4.684   1.204   2.565 -0.1606 -0.0605  0.2074
    1W        W34281  10.128  28.049   2.064  0.0240  0.0773  0.1336
    1W        W34282   6.439  18.501   1.694 -0.2936 -0.2825 -0.0792
    1W        W34283   4.967   6.031   8.413 -0.1372 -0.0374  0.2832
    1W        W34284  27.217  21.992   1.878 -0.3438  0.3815  0.0480
    1W        W34285   6.884  20.547   9.028 -0.1827  0.1037 -0.2687
    1W        W34286   3.259  14.015   8.204 -0.1295 -0.1262  0.0968
    1W        W34287   8.983   8.637   2.855 -0.2932  0.0597 -0.0674
    1W        W34288  21.586   9.357   2.054 -0.1069  0.1727  0.2816
    1W        W34289  29.139   8.489   7.173 -0.1533  0.1955  0.0150
    1W        W34290  19.998  18.272   2.072  0.0270  0.0759  0.1673
    1W        W34291  25.322   6.677   1.971 -0.2637  0.0496 -0.0242
    1W        W34292   9.300  20.242   6.153 -0.2104 -0.0695 -0.2250
    1W        W34293  17.399  10.450   7.930  0.0547  0.0643  0.2370
    1W        W34294   7.642   8.592   2.963 -0.2132 -0.0510  0.2585
    1W        W34295   0.234  17.688   8.489  0.1084  0.0821 -0.2337
    1W        W34296  16.120  17.865   8.101  0.0936  0.0020 -0.1996
    1W        W34297   3.712  16.345   1.186 -0.0392 -0.2169  0.1979
    1W        W34298  15.604   9.830   9.128  0.3451 -0.2414 -0.2474
    1W        W34299   8.564   2.412   1.391 -0.4373 -0.0592  0.0126
    1W        W34300   8.310   4.741   1.559  0.0636  0.1110 -0.4090
    1W        W34301  27.288   4.830   6.752  0.0713 -0.2608 -0.0122
    1W        W34302  25.531  14.876   1.303  0.1092  0.1897 -0.2432
    1W        W34303  27.719  18.048   8.623  0.1643 -0.3898  0.1584
    1W        W34304   5.554   9.837   7.335  0.0188  0.1831  0.1452
    1W        W34305   1.875  24.412   8.537 -0.0828 -0.0323 -0.0911
    1W        W34306  14.232  17.914   6.582  0.0460 -0.2917  0.0794
    1W        W34307   7.251  26.485   1.449 -0.0933  0.4932 -0.2672
    1W        W34308   6.706  16.896   1.082  0.0120 -0.0541  0.2055
    1W        W34309  11.824  14.792   2.028 -0.0004 -0.0090 -0.1474
    1W        W34310  25.348  23.425   2.187 -0.0498 -0.0552 -0.0699
    1W        W34311   0.945  15.440   8.803  0.0877  0.0654  0.1751
    1W        W34312  10.833   0.785   0.839 -0.0817 -0.1491 -0.0196
    1W        W34313   4.743   1.970   8.305 -0.2130  0.1139 -0.0315
    1W        W34314  16.198   4.807   8.662  0.1015  0.0672  0.0062
    1W        W34315  26.091   1.876   1.189  0.2070  0.1046  0.2221
    1W        W34316  17.245   4.481   8.841 -0.0206  0.0940  0.0386
    1W        W34317  15.007  29.284   3.023 -0.0895  0.2009 -0.2074
    1W        W34318  22.006   1.520   1.856 -0.0032 -0.1157  0.0760
    1W        W34319  17.658  27.354   7.302 -0.1914 -0.0225  0.3929
    1W        W34320   5.277   0.907   0.739 -0.0086  0.1649 -0.0887
    1W        W34321   8.253  29.277   1.886  0.0486  0.1204  0.2712
    1W        W34322  14.097  28.388   3.781 -0.0090 -0.2960 -0.0467
    1W        W34323   7.815  10.158   3.273  0.2462 -0.0833  0.0307
    1W        W34324  27.071  17.320   0.027 -0.0566 -0.2510  0.1688
    1W        W34325  24.595   1.157   1.027 -0.2141 -0.2812 -0.0768
    1W        W34326  18.368   4.721   9.037 -0.1304 -0.0028  0.0362
    1W        W34327  24.631   4.056   7.266 -0.4113 -0.1392  0.1494
    1W        W34328  25.971   7.528   8.907 -0.0915 -0.1157  0.2210
    1W        W34329  28.177  24.948   6.014  0.0914 -0.0367  0.1934
    1W        W34330  11.848  30.123   7.770  0.1387  0.0148 -0.0055
    1W        W34331  14.017   3.119   0.525 -0.1414  0.1948  0.1559
    1W        W34332  26.455   4.649   2.453 -0.2787  0.0667 -0.0762
    1W        W34333  29.834  22.353   6.671  0.2317  0.0727  0.3162
    1W        W34334  26.300  18.854   8.348  0.2269 -0.0996 -0.0873
    1W        W34335  28.966  12.822   5.927  0.0407  0.1033 -0.1554
    1W        W34336  29.428  29.031   1.360  0.0666  0.1764 -0.0672
    1W        W34337   2.413  23.776   7.067  0.0112  0.1933 -0.3060
    1W        W34338  12.390   8.555   1.351 -0.3788 -0.0788  0.0702
    1W        W34339   1.969  21.951   0.993  0.3266 -0.3264 -0.1019
    1W        W34340   6.710   7.074   3.411  0.0559  0.1305 -0.0854
    1W        W34341  23.986  16.799   1.650 -0.4691  0.1776 -0.3846
    1W        W34342  23.402  18.693   1.829 -0.2213  0.2203 -0.0707
    1W        W34343   3.075  21.057   7.964  0.2083  0.1981  0.1391
    1W        W34344   9.139  20.636   6.454  0.3478  0.2129  0.1261
    1W        W34345   2.829   8.492   0.087  0.1370  0.0052 -0.1168
    1W        W34346  11.125   5.438   9.150  0.1463 -0.2082  0.1548
    1W        W34347   7.719  21.781   9.263  0.1525  0.2063 -0.3015
    1W        W34348  21.128  17.287   0.518  0.1717  0.1593  0.1336
    1W        W34349   6.443  12.524   1.321  0.1766  0.2788 -0.0078
    1W        W34350   4.622  15.207   9.053  0.0661 -0.1740 -0.0815
    1W        W34351   8.671  27.751   8.741  0.2498  0.2109  0.0145
    1W        W34352  21.704  17.069   8.779 -0.1525  0.0095  0.2678
    1W        W34353  19.995   4.619   7.524  0.0746 -0.3222 -0.1263
    1W        W34354   0.971  21.006   0.035 -0.0444 -0.3490 -0.0996
    1W        W34355   9.881  20.771   9.223  0.3274  0.3154 -0.0848
    1W        W34356  22.607  20.659   8.229  0.0454 -0.3189  0.0476
    1W        W34357  11.930   1.411   2.544 -0.0396  0.1980 -0.2356
    1W        W34358  17.326  27.889   0.052  0.1329 -0.2503 -0.0562
    1W        W34359  24.807  17.362   5.686 -0.1449 -0.0090  0.4334
    1W        W34360   5.128  24.217   7.956  0.3299  0.4401 -0.0059
    1W        W34361  17.437  21.599   1.071 -0.2905 -0.0547 -0.0158
    1W        W34362   4.853  26.376   7.789  0.0876  0.2256  0.2818
    1W        W34363  29.992  29.359   0.923 -0.0660 -0.2714  0.4517
    1W        W34364  21.118  22.901   2.383 -0.0745  0.2445  0.2471
    1W        W34365  26.324   4.408   8.256 -0.0656  0.0407  0.0133
    1W        W34366  11.576   5.443   0.671 -0.2075  0.0486 -0.2000
    1W        W34367   1.429   7.002   7.538 -0.2076  0.1305 -0.2419
    1W        W34368  10.321   9.909   2.060 -0.1027 -0.0133 -0.1065
    1W        W34369  12.338  21.877   7.517  0.1810  0.2077  0.2353
    1W        W34370  26.939  19.690   6.945  0.2776 -0.2901  0.1038
    1W        W34371  15.424   2.699   0.323  0.4701  0.3106  0.2586
    1W        W34372  18.839   5.090   1.737 -0.1645  0.0460  0.2571
    1W        W34373  20.026  15.696   1.697  0.3031 -0.1745 -0.1065
    1W        W34374   8.689  20.353   1.466  0.1566  0.0513  0.1435
    1W        W34375  18.465  21.838   6.994 -0.1111 -0.3564 -0.3632
    1W        W34376   8.540  16.888   7.124 -0.0088 -0.1544  0.0663
    1W        W34377   4.850  24.015   7.361 -0.2424 -0.0904 -0.1347
    1W        W34378   9.679  17.831   2.686 -0.3140  0.1217 -0.0784
    1W        W34379  14.992   1.002   2.662  0.0405  0.3125 -0.2060
    1W        W34380  19.996  14.918   8.923 -0.2562  0.0657  0.1649
    1W        W34381  14.869  29.953   0.469  0.0733 -0.1220 -0.1096
    1W        W34382  19.121  25.741   8.270 -0.1530  0.0604 -0.1271
    1W        W34383  17.055  13.349   0.779 -0.0613  0.0505 -0.0408
    1W        W34384   6.016   7.245   6.921 -0.3266 -0.1141  0.1185
    1W        W34385   9.150   8.635   0.559  0.1303  0.1033  0.0420
    1W        W34386   6.479  10.489   7.035  0.2309  0.1066 -0.1296
    1W        W34387   2.640  22.398   5.906  0.0734  0.2365 -0.0824
    1W        W34388  23.274  22.664   2.883 -0.5091  0.2008 -0.2661
    1W        W34389  26.948  18.387   7.499  0.1125 -0.0960 -0.0525
    1W        W34390   3.682  12.190   7.706  0.0046 -0.1333  0.2497
    1W        W34391  17.920  29.174   0.323  0.1467 -0.1363  0.4189
    1W        W34392  20.750  15.300   0.321 -0.1506 -0.3478  0.2392
    1W        W34393   0.009  15.278   6.375 -0.1288  0.0240  0.0211
    1W        W34394   0.762  22.896   8.049  0.0532 -0.0160  0.1025
    1W        W34395   9.948   0.055   2.416  0.0544  0.2524 -0.2264
    1W        W34396  19.885  14.636   0.577  0.0310 -0.1662 -0.2168
    1W        W34397  15.481   6.078   2.728  0.0952 -0.0177 -0.1388
    1W        W34398  14.168   2.393   0.171  0.1028  0.0937 -0.0746
    1W        W34399  25.401  21.545   0.211  0.1879  0.3841  0.0479
    1W        W34400  29.015   2.018   6.966 -0.0431  0.1579  0.0255
    1W        W34401  14.414  28.721   7.214  0.1288 -0.0417  0.3855
    1W        W34402  10.210   2.474   3.769  0.1455 -0.0470  0.0446
    1W        W34403  10.310   3.784   1.362 -0.2603  0.1302  0.1679
    1W        W34404  18.520  20.170   7.235 -0.1381  0.0119 -0.0969
    1W        W34405  15.921  18.036   7.632  0.0823 -0.0815 -0.2046
    1W        W34406  10.250   0.233   1.977  0.2628  0.3996  0.0393
    1W        W34407  15.721   3.099   0.288 -0.1049  0.0785  0.2100
    1W        W34408  22.864   4.653   8.121 -0.3787  0.1637 -0.1731
    1W        W34409  17.449  22.155   0.345  0.0626  0.1031 -0.0325
    1W        W34410  24.771   3.205   7.287 -0.0113 -0.2550 -0.0423
    1W        W34411  15.861  23.870   2.306 -0.0038 -0.4313 -0.0222
    1W        W34412  27.079   0.274   8.692  0.2178 -0.1125 -0.0751
    1W        W34413  24.635   2.997   7.992 -0.1136  0.0181 -0.3396
    1W        W34414   8.151  12.868   0.457  0.0740  0.2807  0.1336
    1W        W34415  28.888  21.729   9.399 -0.0454  0.1747 -0.1250
    1W        W34416  21.601  27.253   2.295 -0.0857 -0.4376  0.0198
    1W        W34417   6.002  27.464   0.014 -0.1110  0.0848 -0.3097
    1W        W34418   9.618  15.067   9.289  0.1995  0.4333  0.0411
    1W        W34419   1.259   1.405   8.446 -0.0267 -0.1075 -0.1981
    1W        W34420   8.168  16.122   1.615  0.2553 -0.0913 -0.0481
    1W        W34421  12.803  19.281   0.657  0.2140  0.2220  0.0080
    1W        W34422  23.460  28.550   0.753  0.1859  0.1802 -0.3490
    1W        W34423  27.027  28.153   6.937  0.3396  0.0261 -0.0691
    1W        W34424   0.689  20.669   9.138 -0.1854  0.2095  0.0698
    1W        W34425   1.857   6.869   6.684 -0.0867 -0.0119 -0.1901
    1W        W34426  24.107   0.393   8.812  0.0517 -0.5159 -0.0978
    1W        W34427  14.246  16.509   0.726 -0.0838 -0.0312 -0.1468
    1W        W34428  23.459  21.706   1.545 -0.2469 -0.5983  0.1624
    1W        W34429  11.252   5.762   2.431  0.0811 -0.3014 -0.0359
    1W        W34430  14.024  18.828   7.942  0.0439 -0.0146 -0.4326
    1W        W34431  25.506  26.333   1.663 -0.1404  0.0630  0.3017
    1W        W34432  27.772  15.345   0.259  0.0206 -0.1501 -0.3425
    1W        W34433  24.186  21.296   2.069  0.1476  0.0620 -0.0008
    1W        W34434  17.672  29.463   9.259 -0.0329 -0.0062 -0.0063
    1W        W34435   9.819  13.894   1.613 -0.0193 -0.2524  0.1853
    1W        W34436   0.201  18.656   9.094 -0.0508 -0.1139 -0.1400
    1W        W34437  27.152  15.401   8.572  0.2286  0.0524  0.1236
    1W        W34438   3.477   6.602   0.720 -0.2327 -0.0993 -0.0737
    1W        W34439  29.657   8.302   2.258 -0.0655  0.0991 -0.4423
    1W        W34440  12.434  29.562   1.524 -0.1230 -0.0507 -0.3125
    1W        W34441   3.994   4.282   3.266  0.1379  0.0624 -0.0840
    1W        W34442  12.413  17.963   7.373  0.0414 -0.1284  0.2312
    1W        W34443   2.680  23.668   1.361  0.4798  0.1718  0.0852
    1W        W34444  19.246  28.373   0.793 -0.0632 -0.0395 -0.0685
    1W        W34445   5.217  29.419   0.222  0.1224  0.1655  0.0619
    1W        W34446  24.551  24.242   0.558  0.1705  0.1904 -0.0719
    1W        W34447   2.769   7.316   8.340 -0.0871 -0.0684 -0.1555
    1W        W34448  17.612  16.269   7.453  0.0073  0.1051 -0.0947
    1W        W34449   1.102  27.502   7.488  0.0443  0.0674  0.0708
    1W        W34450  11.494  21.492   0.477 -0.1779  0.1351 -0.1027
    1W        W34451  29.570  27.547   7.290 -0.0040  0.0552  0.0713
    1W        W34452  16.748  29.832   0.470  0.0666 -0.0439  0.1008
    1W        W34453  12.248  24.114   6.404 -0.1885 -0.1505  0.1530
    1W        W34454  28.801   1.370   7.646  0.1025 -0.1961  0.2480
    1W        W34455  23.302  25.148   2.857  0.1920 -0.2202  0.3362
    1W        W34456  18.411   8.072   0.105 -0.0535  0.0442  0.2167
    1W        W34457   9.604  11.746   3.160 -0.0843 -0.0755  0.0059
    1W        W34458  19.826   2.551   7.328 -0.0077  0.0532  0.2001
    1W        W34459  17.843   5.568   0.037  0.0204  0.0096 -0.0289
    1W        W34460   6.653  26.802   1.011 -0.4040  0.1296  0.4936
    1W        W34461  27.880  28.597   8.401  0.2355  0.1797 -0.1212
    1W        W34462   9.358  20.121   0.742 -0.0788  0.2054 -0.1128
    1W        W34463  13.972  25.365   7.945  0.2018  0.0905 -0.0980
    1W        W34464  14.401  17.310   7.228 -0.0939 -0.1363 -0.1279
    1W        W34465  12.913  29.276   6.859 -0.1491 -0.1228  0.2041
    1W        W34466   4.067   9.906   7.304  0.4096 -0.3628  0.0695
    1W        W34467  11.068   1.542   3.615 -0.0045 -0.1994 -0.0053
    1W        W34468  23.469   5.490   8.717 -0.0187 -0.0857 -0.0806
    1W        W34469   3.034  24.509   9.249  0.0731  0.0691 -0.0131
    1W        W34470   9.345   6.502   9.350 -0.2435  0.2009  0.0827
    1W        W34471  23.082   5.198   2.559  0.1276  0.2066  0.1132
    1W        W34472  20.702  16.890   6.286  0.1778  0.1014  0.0314
    1W        W34473   9.663  18.445   0.895 -0.0783  0.0100 -0.1027
    1W        W34474  10.458  18.691   0.013  0.2065  0.0174 -0.0735
    1W        W34475  28.366  16.302   8.711 -0.1029 -0.0395 -0.1298
    1W        W34476  28.619  11.707   7.610 -0.0798  0.0471  0.0599
    1W        W34477   2.267  11.580   6.202 -0.0219 -0.3303 -0.1107
    1W        W34478   6.079   1.227   8.819  0.0313  0.1753  0.1664
    1W        W34479   5.444  18.271   6.167  0.3788  0.0728  0.0693
    1W        W34480  16.073  29.314   0.517  0.0738  0.0120  0.0654
    1W        W34481  28.184  26.718   7.052 -0.2622 -0.1169  0.2570
    1W        W34482   1.096  16.592   0.994  0.0146  0.1156  0.0506
    1W        W34483   7.798  11.598   8.035 -0.0261  0.0714  0.0656
    1W        W34484   9.244   8.413   0.994  0.2146 -0.1566  0.1148
    1W        W34485  19.410  23.722   7.673 -0.3760 -0.0696 -0.2747
    1W        W34486  16.426  24.784   8.496  0.1633  0.0335 -0.1011
    1W        W34487  25.395  29.043   0.545 -0.0845 -0.1638 -0.1166
    1W        W34488  10.152  13.356   2.491  0.0520 -0.1044  0.0640
    1W        W34489  12.566  13.729   7.639 -0.0465 -0.1367  0.0019
    1W        W34490  27.308  17.779   7.881  0.2847 -0.0831 -0.2491
    1W        W34491   3.710  24.901   6.270 -0.1949  0.1170 -0.3524
    1W        W34492   7.976  14.450   9.193  0.1958  0.5466 -0.2101
    1W        W34493  27.310   9.015   8.152  0.3314  0.0445  0.0473
    1W        W34494  16.064  28.806   0.587 -0.0880  0.3285  0.1187
    1W        W34495  12.563  21.411   1.274 -0.0309 -0.0178  0.0794
    1W        W34496  12.559  28.342   0.205 -0.1333 -0.0346 -0.0688
    1W        W34497  12.901  26.968   0.978 -0.1277  0.2550 -0.0510
    1W        W34498  19.536   5.040   6.923  0.0397 -0.0955 -0.0295
    1W        W34499   9.577  16.699   0.058  0.1187 -0.0982 -0.0680
    1W        W34500  21.897  24.980   8.058  0.2781  0.1556  0.1890
    1W        W34501  11.732   1.071   0.424  0.0696  0.0137  0.2323
    1W        W34502  26.662  13.522   1.154  0.2051 -0.2820  0.0885
    1W        W34503  28.098  24.126   1.557  0.0542  0.1283  0.0023
    1W        W34504  26.682   6.217   7.956 -0.2170 -0.1413 -0.2799
    1W        W34505  25.301  30.040   6.925 -0.0127 -0.1761 -0.2656
    1W        W34506  29.407  28.198   0.051  0.0394 -0.0395 -0.0238
    1W        W34507  25.784   2.219   2.003  0.0648  0.2669  0.0289
    1W        W34508   9.256   8.215   2.743 -0.1121  0.0221  0.1222
    1W        W34509   4.420  18.335   9.023  0.2661  0.4379 -0.1330
    1W        W34510   6.444  20.071   0.224 -0.2537  0.1483 -0.0493
    1W        W34511  27.389  20.133   7.696  0.0600 -0.1376 -0.0154
    1W        W34512  17.108   6.538   0.207 -0.2932  0.3382 -0.1104
    1W        W34513   0.875  13.960   0.115  0.0346  0.1456  0.1208
    1W        W34514   3.488  17.065   0.535 -0.2693 -0.2698 -0.0905
    1W        W34515  22.927  17.549   1.219  0.1454  0.0317  0.2638
    1W        W34516  12.001   0.751   1.677 -0.0475 -0.2176  0.0125
    1W        W34517  13.535   1.947   1.521 -0.0698  0.1908  0.1758
    1W        W34518  26.207   9.861   6.709  0.0068 -0.2650  0.3061
    1W        W34519  26.331  21.457   7.970  0.1513  0.0380  0.4180
    1W        W34520  16.393   4.721   6.822 -0.0623  0.1925 -0.3052
    1W        W34521  22.115  28.629   2.033  0.1075  0.0343  0.0392
    1W        W34522  15.423   3.928   7.706 -0.3462  0.0626  0.1601
    1W        W34523  15.650  25.668   7.118 -0.2062  0.0005  0.0348
    1W        W34524  10.475  16.253   7.235 -0.0125 -0.2511  0.1104
    1W        W34525  18.175  28.247   1.698 -0.0950 -0.2480 -0.2662
    1W        W34526   8.716  20.957   6.602 -0.1130 -0.2078 -0.3060
    1W        W34527   1.801  27.100   2.270 -0.0836  0.0725 -0.3113
    1W        W34528  21.257   7.349   1.505  0.0713 -0.0822  0.0412
    1W        W34529   5.352   7.238   9.316  0.0127  0.1335  0.0845
    1W        W34530   2.254   3.296   1.683 -0.1182 -0.3004  0.0675
    1W        W34531  27.373   3.532   8.375 -0.0859  0.0718 -0.1483
    1W        W34532  29.843   0.199   8.866 -0.0459 -0.0601  0.0946
    1W        W34533   8.559  12.690   0.131 -0.1333  0.2445  0.0129
    1W        W34534  18.779  11.166   8.657  0.0731  0.2040  0.2529
    1W        W34535  28.431   3.284   1.959  0.0286  0.2541  0.0121
    1W        W34536  10.334   6.882   7.625  0.0657 -0.0460  0.1731
    1W        W34537   0.653  28.851   8.504 -0.1691  0.0461 -0.1679
    1W        W34538  21.401  19.590   5.996 -0.2509 -0.1813  0.4200
    1W        W34539  25.465  28.383   3.313  0.4619 -0.2545  0.5223
    1W        W34540   3.642  12.056   1.059 -0.1403  0.1409  0.2582
    1W        W34541  22.580   6.537   8.305  0.1477 -0.3346  0.2833
    1W        W34542   4.874  18.443   8.507  0.1908  0.0290  0.3236
    1W        W34543  13.127  23.388   1.655 -0.4025  0.0363 -0.1139
    1W        W34544  28.135   9.537   7.233  0.1534 -0.2655  0.1239
    1W        W34545  17.697  21.768   1.702 -0.3405 -0.1528  0.1364
    1W        W34546  20.119   7.289   8.261  0.0624 -0.0914 -0.1239
    1W        W34547   5.221   7.104   2.059  0.2259  0.1096 -0.3266
    1W        W34548  13.478  24.482   2.266 -0.1730  0.1533 -0.2581
    1W        W34549  17.566   0.816   1.010 -0.0138  0.0095 -0.3721
    1W        W34550   8.642  11.117   2.553  0.1617 -0.0684 -0.0750
    1W        W34551   9.845  14.121   1.152  0.1589 -0.2211  0.2439
    1W        W34552   4.068   2.501   7.085 -0.0622 -0.1085  0.2182
    1W        W34553  24.932  25.074   0.064  0.3838  0.1740  0.2621
    1W        W34554  13.317  12.330   7.402  0.1086 -0.2636 -0.0705
    1W        W34555  16.264  12.487   0.653 -0.0465  0.1408  0.1837
    1W        W34556  16.304   2.453   8.409 -0.1255 -0.0699 -0.0566
    1W        W34557  12.162  22.575   0.082 -0.0551 -0.1705  0.2887
    1W        W34558   7.350  10.712   7.739  0.0834 -0.1608  0.1974
    1W        W34559   5.035  18.171   1.786 -0.0664  0.0601  0.0263
    1W        W34560  11.560  29.350   2.517  0.2717  0.1942  0.0580
    1W        W34561  20.292  29.389   1.167 -0.2286  0.0005 -0.0010
    1W        W34562   8.215  27.510   0.762  0.1636 -0.0714 -0.1446
    1W        W34563  12.856   2.349   7.405  0.1337  0.0584 -0.1931
    1W        W34564  26.195  12.503   6.819 -0.2726 -0.0050 -0.0744
    1W        W34565  22.205   4.604   6.801  0.1782 -0.1330 -0.0474
    1W        W34566   1.676   5.377   1.362  0.0277  0.1138 -0.1026
    1W        W34567  24.104   4.556   1.978 -0.4183 -0.0707  0.0167
    1W        W34568  17.857   6.214   1.969 -0.1295 -0.2006  0.1525
    1W        W34569  24.263   2.183   0.822 -0.0414  0.0719  0.2712
    1W        W34570  16.796  28.674   7.468 -0.2397 -0.3396 -0.2162
    1W        W34571  27.876  28.965   7.410  0.0423  0.0317 -0.1404
    1W        W34572   6.810  28.144   2.479 -0.0264  0.0906  0.0718
    1W        W34573   3.451  10.525   1.748  0.1266 -0.0725 -0.1906
    1W        W34574  19.049   1.082   6.624  0.1337 -0.0212  0.0324
    1W        W34575  12.433   6.155   1.292  0.1939 -0.2861 -0.1383
    1W        W34576  12.801  25.815   1.628 -0.0787  0.1410  0.0751
    1W        W34577   3.828   9.205   7.711 -0.2877  0.2556  0.0575
    1W        W34578  20.590  10.577   0.051  0.1297 -0.0804  0.1701
    1W        W34579  11.815  17.080   1.414 -0.3050  0.1038 -0.2105
    1W        W34580   0.985  14.564   8.087  0.3916 -0.0778  0.0175
    1W        W34581   1.466   7.234   2.200 -0.1465 -0.0227  0.0391
    1W        W34582  23.687   9.630   7.633  0.0359  0.0267  0.0193
    1W        W34583  26.535   5.831   2.055  0.2222 -0.0505 -0.1031
    1W        W34584  13.155   1.683   1.295 -0.1034  0.0104 -0.4882
    1W        W34585  18.442  15.195   6.342 -0.3972 -0.1868  0.0998
    1W        W34586  24.748  27.556   2.510 -0.1842  0.1812  0.4775
    1W        W34587  17.753   7.405   7.302  0.1502  0.0716  0.0544
    1W        W34588  20.030   8.466   0.473 -0.1054  0.1834  0.1122
    1W        W34589  16.692  13.865   1.196  0.0299  0.0236 -0.0206
    1W        W34590   9.987  20.848   1.462  0.1422 -0.0144 -0.2857
    1W        W34591  16.060   4.850   1.861  0.4577  0.1721 -0.0228
    1W        W34592  27.242  20.529   1.104  0.1323 -0.0985 -0.2352
    1W        W34593  10.217   3.548   3.698 -0.1393 -0.1184  0.0865
    1W        W34594   9.987  29.446   2.940  0.0827 -0.1036  0.2717
    1W        W34595  27.795  22.231   8.491  0.0404  0.0234  0.1125
    1W        W34596  28.841  11.236   1.147  0.0094 -0.1271  0.3127
    1W        W34597  18.404   6.321   2.047  0.0709 -0.2737 -0.0197
    1W        W34598  26.942  24.591   0.073  0.2770 -0.1110  0.1087
    1W        W34599   5.599   1.017   0.139 -0.2786 -0.0420  0.2017
    1W        W34600  20.608  28.750   0.845  0.2914 -0.0693  0.5648
    1W        W34601   0.504  26.399   7.592 -0.0072 -0.0117 -0.2127
    1W        W34602   9.940   2.879   2.932  0.0032 -0.0277  0.1317
    1W        W34603   1.058  27.343   0.133  0.0509  0.1141 -0.1612
    1W        W34604  25.753  25.215   7.231  0.1089  0.0038  0.2132
    1W        W34605  20.473   0.290   9.020  0.1529  0.3264  0.0822
    1W        W34606   3.574   2.209   9.067  0.1695 -0.1560  0.3155
    1W        W34607   0.442   9.879   0.835 -0.3064 -0.5373 -0.0173
    1W        W34608  13.961  22.148   1.555 -0.0030 -0.0902 -0.2037
    1W        W34609  26.261  10.073   5.856  0.3091  0.0561 -0.2715
    1W        W34610  19.298  14.831   2.240 -0.2273  0.0092 -0.1790
    1W        W34611  10.871  27.477   2.366 -0.0900 -0.2752  0.2466
    1W        W34612  12.286   1.201   1.640 -0.1170  0.0811 -0.1022
    1W        W34613  29.166   7.417   2.297 -0.0737 -0.4551 -0.0625
    1W        W34614  11.497  13.853   2.335 -0.0507 -0.1667 -0.0326
    1W        W34615   1.525  12.262   6.979 -0.1232  0.2104 -0.1429
    1W        W34616  20.653  10.287   7.509 -0.1168  0.2384 -0.1569
    1W        W34617  11.168  29.626   2.471  0.1449 -0.0136  0.3054
    1W        W34618   7.741  29.529   0.528  0.1990 -0.1746 -0.1215
    1W        W34619  13.609  21.513   0.518 -0.0345 -0.0276  0.2991
    1W        W34620  25.816  27.516   1.025 -0.0875  0.0309 -0.1277
    1W        W34621  25.460  19.023   5.629  0.1551 -0.1563 -0.2296
    1W        W34622   5.270  24.354   7.255 -0.1281 -0.0677  0.0860
    1W        W34623  20.835  14.065   8.190  0.1688  0.1806  0.2266
    1W        W34624  14.400   3.313   8.180  0.1500  0.1589 -0.0903
    1W        W34625  28.460  27.406   0.054  0.3498  0.1007  0.2088
    1W        W34626   6.140  21.382   0.828  0.1162 -0.1631 -0.0784
    1W        W34627  14.936   6.612   3.030  0.1041 -0.1519  0.3622
    1W        W34628  17.761   0.969   8.788  0.1676 -0.1968  0.3331
    1W        W34629  29.045  19.912   6.471 -0.1211  0.3404 -0.0816
    1W        W34630  19.353  10.994   8.423 -0.0207  0.2000  0.0732
    1W        W34631   4.672  27.140   6.428  0.0953 -0.2395  0.0644
    1W        W34632  30.066  23.456   1.569 -0.1639  0.0848  0.1785
    1W        W34633  19.081  15.054   1.746  0.1568 -0.0543 -0.1638
    1W        W34634   1.085   8.524   6.856  0.2225 -0.1112  0.1822
    1W        W34635   4.176  11.130   9.165  0.0936  0.0959  0.1253
    1W        W34636  24.048  24.337   0.741 -0.4054  0.0704 -0.2956
    1W        W34637  24.548  16.913   8.895  0.0776  0.1100 -0.0757
    1W        W34638  24.187   7.319   2.777 -0.3456  0.2204  0.1990
    1W        W34639   6.808  18.649   9.249  0.0466 -0.0337  0.1334
    1W        W34640  22.637  11.413   1.762  0.1818  0.0776  0.0052
    1W        W34641  21.518  25.443   9.210  0.0594 -0.3155 -0.0369
    1W        W34642  23.926  22.878   8.812  0.1029 -0.0957  0.3693
    1W        W34643  29.232   1.629   0.223 -0.1161 -0.1270 -0.1823
    1W        W34644  16.017  17.244   1.353 -0.1571  0.0511 -0.0016
    1W        W34645  21.299   6.469   8.280 -0.1570 -0.3491 -0.1979
    1W        W34646  23.417  21.321   6.851 -0.0455 -0.0060  0.0988
    1W        W34647   1.775  21.631   5.603 -0.2209  0.1037  0.2311
    1W        W34648  29.843   1.499   8.497  0.0944 -0.0781 -0.0982
    1W        W34649  26.707   8.540   8.205 -0.0747 -0.0288 -0.1406
    1W        W34650  10.156  20.437   1.252  0.1981 -0.1780 -0.4946
    1W        W34651  29.793  10.414   7.023 -0.1410 -0.2408  0.0547
    1W        W34652  12.906   8.085   3.309  0.3490  0.0790 -0.2831
    1W        W34653  19.527  17.025   6.974 -0.1863 -0.2144  0.0622
    1W        W34654  17.420  10.281   8.471 -0.0547  0.1046 -0.4964
    1W        W34655  19.122   3.488   0.634  0.3062 -0.2253 -0.2335
    1W        W34656  15.471  25.795   0.732 -0.0548 -0.1344  0.0759
    1W        W34657   1.166  10.603   9.292 -0.2628  0.1947 -0.0080
    1W        W34658  24.543  29.139   8.576  0.1008 -0.1713 -0.1425
    1W        W34659   5.503   3.920   2.103  0.1723  0.2968  0.0600
    1W        W34660  13.115  28.042   8.659  0.0896  0.3336 -0.2602
    1W        W34661  23.069   7.624   8.086  0.4008 -0.0233  0.0521
    1W        W34662  15.581   5.509   2.944 -0.2800  0.0153  0.1570
    1W        W34663  22.370  25.861   7.538  0.2724  0.4384  0.2106
    1W        W34664  19.252   0.572   6.586  0.2948 -0.1389 -0.2588
    1W        W34665   4.548  13.175   9.399  0.1857 -0.3571 -0.2448
    1W        W34666  11.683  26.192   6.007  0.0063  0.1671 -0.0589
    1W        W34667  25.379   3.740   8.830  0.1335 -0.1789  0.0348
    1W        W34668   8.187   3.492   2.340  0.1051 -0.1532 -0.4875
    1W        W34669   4.039   9.359   1.532  0.1080  0.2263 -0.0700
    1W        W34670  20.316  21.829   7.519 -0.2094  0.0009  0.0423
    1W        W34671  16.605   3.800   2.479  0.0029  0.1246  0.2023
    1W        W34672  12.577   8.125   0.546 -0.0845 -0.0916  0.1101
    1W        W34673  25.679  27.824   6.994  0.0147 -0.0302 -0.2128
    1W        W34674  27.375   7.636   6.607  0.1706 -0.3132 -0.0504
    1W        W34675   2.129  30.011   8.098 -0.0163  0.0846  0.0661
    1W        W34676   7.502  14.680   6.886  0.2180  0.0637 -0.3710
    1W        W34677   5.030  19.822   7.763  0.0908 -0.1207 -0.0943
    1W        W34678   0.960  21.460   6.736  0.0051 -0.2574  0.1918
    1W        W34679   1.740  21.711   0.632  0.2276 -0.0333  0.1643
    1W        W34680  16.849   9.535   7.353  0.2537 -0.1740 -0.0162
    1W        W34681  29.268  16.187   6.990  0.1020  0.0169 -0.1175
    1W        W34682   6.093   6.104   9.339  0.0012  0.2418  0.0341
    1W        W34683  15.812  28.611   6.743  0.0815  0.1567 -0.0968
    1W        W34684  10.657   2.101   2.556 -0.0236 -0.0264  0.4028
    1W        W34685  16.193  22.618   0.872 -0.1810  0.3498 -0.0736
    1W        W34686  19.045  13.517   8.479  0.3381 -0.1114 -0.1221
    1W        W34687   9.454  26.499   0.156 -0.0281  0.1458  0.0001
    1W        W34688  22.391  23.677   8.386  0.0415  0.3408  0.0113
    1W        W34689  14.722   0.971   7.934  0.4881 -0.0124 -0.1622
    1W        W34690   6.751  28.631   3.512  0.0122  0.0127  0.0023
    1W        W34691  23.586  28.289   2.092 -0.0781 -0.2380  0.1310
    1W        W34692  29.400  15.501   6.100 -0.1306  0.1410 -0.0157
    1W        W34693  10.963  14.969   8.990  0.0942 -0.3095 -0.1691
    1W        W34694   3.332  11.303   2.256  0.0640 -0.2704 -0.1285
    1W        W34695  29.802  11.068   9.352 -0.0552 -0.0688  0.3355
    1W        W34696  22.511  23.190   0.932 -0.0781 -0.3883 -0.3139
    1W        W34697   1.526   9.716   1.912  0.2717 -0.0140 -0.0916
    1W        W34698   9.195   4.800   1.330 -0.0527 -0.3360 -0.0379
    1W        W34699  10.486   5.243   0.465 -0.3092 -0.0267  0.1297
    1W        W34700  17.686  12.015   7.944  0.2653  0.2931  0.1696
    1W        W34701  19.317  10.804   7.365  0.0412  0.0293 -0.1860
    1W        W34702   2.364   0.242   3.577 -0.3057  0.2666 -0.2120
    1W        W34703  20.818  15.324   7.551 -0.0600  0.1324 -0.0276
    1W        W34704  10.186  24.156   6.181 -0.3543 -0.1584 -0.0789
    1W        W34705   6.082  15.986   7.180 -0.2560 -0.2012 -0.1009
    1W        W34706  15.050   3.119   3.867  0.1838 -0.2945  0.5141
    1W        W34707  21.441  10.882   2.181  0.1192 -0.1261 -0.0363
    1W        W34708  29.637  23.704   8.473  0.1086  0.3337 -0.2639
    1W        W34709  25.124  10.534   5.573 -0.0810  0.0152  0.0443
    1W        W34710   9.812   8.112   1.421  0.0572  0.0924 -0.0123
    1W        W34711  18.280   0.453   7.172 -0.2837 -0.2960  0.1545
    1W        W34712  14.447  19.749   1.598  0.0148 -0.2554 -0.0315
    1W        W34713  25.307   1.959   0.575  0.0268 -0.0693 -0.0854
    1W        W34714  29.899  13.371   8.303 -0.1316  0.1894 -0.1970
    1W        W34715  26.519  28.679   2.547 -0.1647  0.5033 -0.0248
    1W        W34716  22.932  10.504   6.591  0.1835 -0.3256  0.0493
    1W        W34717  29.277   0.148   8.610  0.1816 -0.0228  0.1364
    1W        W34718  10.223  26.412   8.229  0.0300  0.2587  0.3060
    1W        W34719  21.194  23.370   2.803 -0.1227  0.0116 -0.1713
    1W        W34720   3.910   9.703   2.031  0.0281 -0.0435 -0.2828
    1W        W34721   5.193   5.864   1.666 -0.2996 -0.0388 -0.1267
    1W        W34722  18.871  24.304   8.740 -0.2966  0.1464  0.0669
    1W        W34723  20.549   8.814   1.395  0.0238 -0.5568 -0.2402
    1W        W34724  26.422   4.498   7.066  0.3243 -0.1612  0.0846
    1W        W34725  16.073  18.212   7.174 -0.0375  0.2726 -0.0535
    1W        W34726   1.673  12.979   8.676 -0.1880 -0.1613  0.0125
    1W        W34727  12.129  15.308   8.416  0.0559 -0.0564 -0.0219
    1W        W34728  25.326  11.509   1.131 -0.3716  0.4999 -0.2895
    1W        W34729  20.226  11.285   1.002 -0.0857 -0.0689  0.1053
    1W        W34730  11.203  17.058   8.385 -0.2171 -0.1200 -0.1860
    1W        W34731   1.437  23.834   6.193 -0.1899 -0.1823  0.0546
    1W        W34732   4.851  23.392   0.055 -0.0579 -0.0205 -0.2054
    1W        W34733   1.410   0.518   8.509 -0.0576 -0.2450  0.1289
    1W        W34734  13.421   8.882   8.651  0.0104  0.2126  0.1704
    1W        W34735  15.695  10.350   7.832 -0.2490  0.0530 -0.2118
    1W        W34736  21.878  19.412   7.291  0.0012 -0.2111 -0.1165
    1W        W34737   3.496  26.358   6.830 -0.1523 -0.1191  0.1115
    1W        W34738  28.401  16.951   5.839 -0.0170 -0.2025  0.0976
    1W        W34739   9.793   2.740   9.052 -0.0539  0.0186  0.2288
    1W        W34740  18.106  15.509   0.500  0.0468  0.4459  0.1186
    1W        W34741  26.377   4.239   2.044  0.0866 -0.1934  0.0880
    1W        W34742   0.906  14.022   5.808 -0.2666  0.2511  0.1021
    1W        W34743   9.847  26.351   7.923  0.0096 -0.0997 -0.2194
    1W        W34744   0.087   4.800   2.533 -0.2605  0.1239  0.1031
    1W        W34745   2.457   5.245   2.583 -0.0944  0.0130  0.2604
    1W        W34746   0.017   7.596   0.342  0.0112 -0.2379 -0.2138
    1W        W34747  15.501  27.071   2.342 -0.0500 -0.0355 -0.4622
    1W        W34748  29.036   0.582   6.691  0.0454 -0.0083  0.3381
    1W        W34749  22.272  30.079   1.692 -0.0528 -0.3426  0.0893
    1W        W34750  23.123  21.272   1.377  0.1727 -0.0437  0.0790
    1W        W34751  18.864  27.273   0.028 -0.0763 -0.0809  0.3433
    1W        W34752   8.633  20.587   8.414  0.4222  0.3232  0.0011
    1W        W34753  26.124  29.567   2.397 -0.3162 -0.0284 -0.0953
    1W        W34754  24.304  30.132   6.692 -0.1475 -0.1463 -0.1780
    1W        W34755  14.402   9.196   9.074 -0.0813 -0.3071  0.3565
    1W        W34756  25.405  21.904   1.724  0.0842 -0.0947 -0.0590
    1W        W34757  29.369   0.874   1.151  0.1216  0.1900 -0.1957
    1W        W34758  16.415  13.627   9.296 -0.3463 -0.3001  0.0132
    1W        W34759  17.365  13.432   7.651  0.0215  0.1027  0.0518
    1W        W34760  21.110   9.456   7.749 -0.0165 -0.1751 -0.1265
    1W        W34761   4.645  27.514   2.354 -0.2053 -0.2819  0.0573
    1W        W34762   7.256  17.101   9.359 -0.1804  0.0702  0.0385
    1W        W34763   6.261  29.933   7.851  0.4041 -0.1042  0.2617
    1W        W34764   9.025  28.052   0.386  0.1887  0.1898  0.3255
    1W        W34765  16.328  29.413   2.775  0.1858 -0.0878 -0.0805
    1W        W34766   7.049  11.003   2.953 -0.1425  0.1206 -0.0680
    1W        W34767  21.441  29.944   1.943 -0.0829  0.0588 -0.1862
    1W        W34768  18.285  24.887   7.180  0.0870  0.1278  0.0821
    1W        W34769  23.517   5.923   1.651  0.1081 -0.0185  0.0713
    1W        W34770  14.149   3.718   8.126 -0.0522  0.0564 -0.0889
    1W        W34771  28.988  27.229   9.354 -0.0751 -0.0661  0.2272
    1W        W34772  27.742  14.049   0.593 -0.3700  0.2838  0.0759
    1W        W34773  22.054  26.546   2.307  0.0406 -0.0076 -0.0398
    1W        W34774  17.357   9.797   8.467 -0.0073 -0.0754 -0.2240
    1W        W34775   8.161   2.041   2.171 -0.3536 -0.2566 -0.2424
    1W        W34776   3.450   9.761   9.218  0.3909 -0.0206 -0.1111
    1W        W34777   3.386  11.051   6.666  0.0615 -0.2164  0.0235
    1W        W34778  28.273  21.781   0.566  0.1575  0.4006  0.0609
    1W        W34779   1.840   8.219   7.971  0.0115  0.3084  0.0177
    1W        W34780  13.501  29.307   9.222 -0.1075  0.0417 -0.2009
    1W        W34781  24.264  16.846   6.262  0.0353 -0.0128 -0.0528
    1W        W34782  21.718  10.066   6.780 -0.0574  0.1199 -0.1245
    1W        W34783   8.161   8.553   8.588  0.1216  0.3006 -0.0218
    1W        W34784   8.303   4.552   7.821 -0.1051  0.0412  0.0803
    1W        W34785  14.524   1.079   2.268 -0.0534 -0.2512 -0.3109
    1W        W34786  25.429  21.354   9.167 -0.3141 -0.0163  0.0382
    1W        W34787   6.569  14.363   8.407  0.1110 -0.0917 -0.0565
    1W        W34788  22.641  27.549   9.331 -0.3621 -0.1327 -0.0259
    1W        W34789  29.340   1.941   8.125 -0.1143  0.0076  0.2809
    1W        W34790   6.326  13.531   1.233 -0.1142 -0.0414  0.0925
    1W        W34791   8.040   1.476   1.564  0.0120  0.0542 -0.0261
    1W        W34792  21.644   2.933   7.707  0.0626 -0.2380 -0.3096
    1W        W34793  16.128   3.858   0.622  0.0262  0.1351 -0.1976
    1W        W34794  10.097   3.458   2.581  0.1390 -0.1280  0.0447
    1W        W34795   6.969  12.073   7.089 -0.0257 -0.2045  0.1025
    1W        W34796  15.015   8.988   7.969 -0.1315 -0.0812  0.2406
    1W        W34797  29.403  23.836   0.631  0.0556  0.0118  0.1086
    1W        W34798   0.062   7.724   1.717  0.0221  0.0199 -0.0699
    1W        W34799  23.855  22.064   2.679  0.1219  0.0693  0.3696
    1W        W34800  20.389  17.932   0.146 -0.0205 -0.0837 -0.0760
    1W        W34801  26.653   2.630   6.771  0.2439 -0.3570  0.3013
    1W        W34802   9.284   0.637   2.014  0.0725  0.0468  0.1382
    1W        W34803  17.020   5.570   2.714  0.0330 -0.2218 -0.3327
    1W        W34804  21.801  11.770   6.937 -0.0702 -0.2197 -0.0205
    1W        W34805   1.259  27.619   1.337  0.0827  0.1405 -0.1746
    1W        W34806  28.389  19.733   8.142 -0.2384 -0.4777  0.2454
    1W        W34807  24.995  17.219   1.491  0.2431 -0.1723 -0.2237
    1W        W34808  11.138  22.355   9.361 -0.1510 -0.1513  0.2218
    1W        W34809  26.893  10.098   0.408 -0.1127 -0.0091 -0.3513
    1W        W34810  13.994  22.209   7.671 -0.2923 -0.1586 -0.3786
    1W        W34811  19.943   6.918   0.594  0.0420 -0.2279  0.0824
    1W        W34812  15.286   7.159   1.664  0.0775  0.2803  0.0790
    1W        W34813   1.946  14.107   0.466  0.0272  0.0305  0.1301
    1W        W34814  29.038  13.269   5.260 -0.2856 -0.0458 -0.1825
    1W        W34815  23.941  17.220   7.089  0.0788 -0.3012 -0.2668
    1W        W34816   4.075  18.765   7.759 -0.0373 -0.1206  0.2059
    1W        W34817  23.115  14.232   6.016  0.0359  0.0963  0.2867
    1W        W34818   0.221  13.322   1.171  0.0474  0.0727  0.1568
    1W        W34819  23.664  23.373   2.001 -0.0758  0.0671  0.0700
    1W        W34820   9.320  13.584   7.583  0.2679 -0.3665 -0.0719
    1W        W34821  16.230  18.959   0.007  0.2128  0.0032 -0.2873
    1W        W34822   1.352   3.268   9.037 -0.1102 -0.0103  0.0674
    1W        W34823   8.929  12.881   7.970  0.0423 -0.1125 -0.2455
    1W        W34824  28.681  30.126   1.107 -0.1214 -0.3213  0.4611
    1W        W34825  14.011   6.277   1.257 -0.0436 -0.0811 -0.0314
    1W        W34826   3.500   7.769   0.413  0.0078  0.0515  0.2380
    1W        W34827  29.322  17.519   1.336 -0.0029  0.0210  0.2725
    1W        W34828   3.094  25.028   1.988 -0.1985  0.0975 -0.1390
    1W        W34829   6.672  17.853   7.127  0.0409 -0.1252 -0.1958
    1W        W34830  18.582   3.757   0.174  0.2168  0.0103 -0.1602
    1W        W34831   2.023  23.437   8.420  0.2168  0.1509  0.2461
    1W        W34832  11.249  21.088   0.190 -0.2262  0.0492 -0.0039
    1W        W34833   2.210  15.994   5.866 -0.5107  0.2817 -0.0986
    1W        W34834  20.501   5.376   1.628 -0.3612 -0.1605 -0.2459
    1W        W34835  14.259   0.930   1.326  0.2230  0.1153 -0.1230
    1W        W34836   6.011   2.001   7.976 -0.0968  0.1153  0.0953
    1W        W34837  26.995  23.197   1.490  0.0119  0.0802 -0.0421
    1W        W34838  17.346   9.685   1.353  0.2825  0.1117  0.1472
    1W        W34839   8.259  10.273   0.106 -0.1538 -0.2722  0.1793
    1W        W34840  15.274  24.330   7.365 -0.0238 -0.1783 -0.0337
    1W        W34841   7.643   5.632   1.869 -0.3010  0.1309 -0.1657
    1W        W34842   7.680  27.999   8.214 -0.3987 -0.0770  0.0477
    1W        W34843  30.153  27.291   7.554 -0.0197  0.2308  0.0204
    1W        W34844  12.232  26.464   7.377 -0.4010  0.0077 -0.0400
    1W        W34845  21.392  26.550   2.270  0.0900 -0.2366  0.0347
    1W        W34846   8.794  27.670   0.130  0.0221  0.1528 -0.1017
    1W        W34847  25.065  24.824   3.109 -0.0221  0.1198 -0.0191
    1W        W34848   1.837  18.634   5.372  0.1355 -0.1655 -0.1915
    1W        W34849   6.098   5.765   2.856 -0.4424 -0.0729 -0.0748
    1W        W34850   7.975  11.391   2.095 -0.1670  0.0885  0.2857
    1W        W34851   8.334  13.026   0.901  0.0924 -0.3020  0.3145
    1W        W34852  14.760   2.281   2.169  0.0114  0.0222  0.0134
    1W        W34853  22.389   0.735   1.552 -0.3570  0.0746 -0.0281
    1W        W34854  25.192   3.274   1.124 -0.0048 -0.3025  0.0806
    1W        W34855  15.759  14.327   0.626 -0.2695 -0.1465  0.2125
    1W        W34856   2.267   6.958   6.919  0.1993 -0.3828 -0.0509
    1W        W34857  15.056   6.888   0.613  0.1925  0.2042 -0.0191
    1W        W34858   0.520  18.407   0.921 -0.1439  0.2729  0.2845
    1W        W34859   3.188  29.093   1.920 -0.0219 -0.1145 -0.1359
    1W        W34860   5.510   4.838   2.492 -0.0513 -0.2361 -0.4024
    1W        W34861  28.562  22.869   1.785 -0.1905 -0.1665  0.0179
    1W        W34862   3.088  10.859   8.093 -0.0551  0.0571  0.0422
    1W        W34863  11.793   7.418   2.135  0.3170  0.1132 -0.3373
    1W        W34864   3.347  22.208   6.396 -0.0464  0.1457  0.0392
    1W        W34865   9.668  20.348   7.667 -0.1790 -0.0683  0.0589
    1W        W34866  21.425  14.677   0.906  0.0900  0.0844  0.1278
    1W        W34867  13.732  19.706   7.955 -0.2251  0.3262  0.0910
    1W        W34868  22.546   0.205   7.824 -0.3355  0.1360 -0.2619
    1W        W34869  29.971  18.945   6.170  0.0498  0.1241  0.0028
    1W        W34870  10.652  14.666   8.724  0.0943 -0.2645 -0.0391
    1W        W34871  15.049  16.183   7.669  0.3079 -0.0823  0.1503
    1W        W34872  20.452   8.324   7.478  0.3403 -0.2125 -0.1437
    1W        W34873   7.232  23.414   1.573  0.1063 -0.1933 -0.1467
    1W        W34874  18.079  22.453   2.301 -0.2725 -0.0297 -0.2359
    1W        W34875   3.539  22.016   0.622  0.0584 -0.1758 -0.0954
    1W        W34876   5.533   9.531   3.612  0.1288  0.2342 -0.2575
    1W        W34877  25.108  23.285   8.083  0.0974 -0.3057  0.0567
    1W        W34878  22.184   2.588   6.924  0.2145 -0.1713  0.2004
    1W        W34879   9.841   0.280   8.875 -0.0825  0.0742 -0.2187
    1W        W34880   0.767  29.844   9.015  0.1553 -0.0237 -0.2470
    1W        W34881  10.412  23.317   2.059  0.1207 -0.1748 -0.3008
    1W        W34882  23.506   1.226   8.996 -0.1859  0.1703 -0.1549
    1W        W34883  20.151  21.436   7.778 -0.1065  0.0745 -0.3486
    1W        W34884  17.154  29.908   1.649 -0.0588  0.1383 -0.2640
    1W        W34885  14.162  29.914   1.929  0.1754 -0.0153 -0.1842
    1W        W34886  27.688  15.631   1.697 -0.1846  0.2403 -0.0784
    1W        W34887   8.101   1.546   8.132 -0.0983 -0.1177  0.0786
    1W        W34888  22.347  12.247   6.359  0.1862 -0.1946 -0.4214
    1W        W34889  12.219   2.000   3.249  0.2150 -0.1641 -0.2123
    1W        W34890  13.895  10.861   8.282  0.1124  0.0031  0.1808
    1W        W34891  17.285   6.116   7.867  0.4048  0.0423 -0.1217
    1W        W34892  15.832  26.667   8.307  0.0314  0.4254  0.2470
    1W        W34893   0.232  10.168   1.696  0.2311  0.3805  0.1643
    1W        W34894  15.890   2.808   7.809 -0.3018 -0.0798 -0.2236
    1W        W34895   2.327   6.031   2.794 -0.2159 -0.0485  0.0393
    1W        W34896   2.202  10.287   0.587 -0.1440 -0.2527 -0.4817
    1W        W34897  13.915  21.416   8.145 -0.0387 -0.3254  0.0493
    1W        W34898  18.996  24.758   8.887  0.2587 -0.3998 -0.0226
    1W        W34899   3.320   4.708   9.373  0.4065 -0.1145 -0.2202
    1W        W34900  11.323   4.578   2.013 -0.0328  0.2365 -0.2532
    1W        W34901  21.417  22.514   7.798  0.0934 -0.0424  0.3544
    1W        W34902   4.869  16.520   6.652  0.2277 -0.0891 -0.0240
    1W        W34903  13.005  22.880   1.381  0.3487  0.1250 -0.2282
    1W        W34904  11.763  23.399   6.818 -0.1975 -0.0540 -0.2352
    1W        W34905  16.775  29.736   1.957 -0.0760 -0.2671 -0.1693
    1W        W34906   5.391   4.152   2.774 -0.2710 -0.3736 -0.0143
    1W        W34907  23.584   4.653   8.352  0.1183 -0.4552 -0.1572
    1W        W34908  19.702   4.734   7.957 -0.0418  0.2184 -0.0029
    1W        W34909   6.393  20.539   7.659  0.3103 -0.1050 -0.2769
    1W        W34910   7.457  23.401   5.925  0.1432  0.0502 -0.1364
    1W        W34911  29.564  16.280   0.609 -0.0007 -0.2541 -0.0113
    1W        W34912  25.328   0.747   2.106  0.2319 -0.3031 -0.0595
    1W        W34913   8.976  21.817   8.853 -0.0009 -0.2742 -0.0545
    1W        W34914  11.055  16.674   9.331  0.2077 -0.2450  0.1482
    1W        W34915  10.057  13.234   0.966 -0.1814  0.0411  0.2433
    1W        W34916  15.534  25.178   9.201  0.0819 -0.0503  0.3891
    1W        W34917  27.678  10.966   6.774  0.1487 -0.3185  0.2723
    1W        W34918   7.412  22.422   5.881 -0.0084  0.0582  0.1688
    1W        W34919   1.593  13.177   8.245 -0.1614 -0.0099  0.1443
    1W        W34920   7.979  28.299   2.715 -0.1388  0.2941  0.0272
    1W        W34921   0.756  10.631   0.176  0.0028 -0.1234  0.2067
    1W        W34922   6.139  28.784   0.548 -0.1835 -0.1482 -0.0093
    1W        W34923   5.543  29.103   7.836  0.0569 -0.1110  0.4987
    1W        W34924  10.515  25.322   7.713  0.3509 -0.2342  0.1074
    1W        W34925  10.870  28.898   7.061  0.4478 -0.0377  0.1129
    1W        W34926  27.334   8.232   8.764 -0.1820 -0.0341 -0.4146
    1W        W34927  23.984  13.600   2.136 -0.2979  0.1684 -0.1449
    1W        W34928   1.515   0.522   1.437 -0.1356  0.2168  0.1739
    1W        W34929  16.980  15.107   9.400  0.0097  0.0574 -0.0613
    1W        W34930   8.050  27.094   8.973 -0.0145  0.1376 -0.1346
    1W        W34931   5.891  13.393   8.677  0.1255  0.3474 -0.1911
    1W        W34932  13.586   8.695   3.698  0.3876 -0.0010 -0.0789
    1W        W34933   1.018   1.801   2.137  0.3528  0.0487  0.0521
    1W        W34934  24.956   3.744   7.935 -0.0656  0.2454  0.2200
    1W        W34935   4.177   7.892   7.540 -0.0116 -0.2236 -0.0771
    1W        W34936  22.942  13.303   1.164 -0.0473  0.0841 -0.0936
    1W        W34937   8.502   2.780   6.759 -0.1305 -0.2933 -0.0709
    1W        W34938  20.977  13.604   6.614 -0.0214 -0.0158 -0.0500
    1W        W34939   6.892   3.865   2.783 -0.0092  0.0223 -0.2589
    1W        W34940  22.413   2.857   7.279 -0.4165  0.2043 -0.0835
    1W        W34941  28.574  21.609   0.989 -0.2335  0.1311  0.1456
    1W        W34942  28.175   7.524   7.158 -0.1369 -0.3463  0.1175
    1W        W34943  13.215   0.457   8.468 -0.2530  0.3546  0.1711
    1W        W34944  18.105  18.016   8.259 -0.0569 -0.1344  0.1523
    1W        W34945   1.717   5.709   7.816 -0.0750 -0.0010 -0.3575
    1W        W34946  14.992   0.000   2.505 -0.0613 -0.3197 -0.4357
    1W        W34947  28.903  10.354   1.750  0.3085 -0.3958 -0.1312
    1W        W34948  13.146   2.943   0.134 -0.0907 -0.1528 -0.2663
    1W        W34949  26.170  27.447   6.930 -0.0791  0.2936 -0.1194
    1W        W34950  14.158  21.218   8.565 -0.3754 -0.1872  0.1524
    1W        W34951   5.621   0.102   1.125 -0.0663 -0.1038 -0.2279
    1W        W34952   8.839  13.402   9.395 -0.1278  0.0683 -0.1475
    1W        W34953  14.751  10.511   9.018  0.1652 -0.1430  0.0709
    1W        W34954  18.631  11.960   1.734 -0.0294 -0.2091 -0.2338
    1W        W34955  21.722   1.067   7.205  0.0683 -0.1143  0.2801
    1W        W34956   6.700  16.184   2.205  0.0223 -0.1344  0.0775
    1W        W34957  22.640  15.873   0.756  0.1002  0.1389  0.1305
    1W        W34958  22.594  21.354   6.646 -0.0051 -0.1638  0.0090
    1W        W34959  13.171   0.522   0.858 -0.1168 -0.0390  0.0704
    1W        W34960   9.909   7.293   6.917  0.2551 -0.1785 -0.1174
    1W        W34961  25.050  20.319   8.418 -0.1132  0.1173 -0.3209
    1W        W34962  18.747  18.792   8.272  0.0268  0.0175  0.2906
    1W        W34963  24.594   2.638   2.770 -0.0435 -0.1613  0.0181
    1W        W34964  24.936  23.164   6.691  0.1396  0.2032 -0.1092
    1W        W34965   2.938  25.765   9.071 -0.0580 -0.0922  0.0937
    1W        W34966  10.799   4.595   1.260 -0.0837  0.1179  0.2183
    1W        W34967  11.036  16.298   0.319  0.1807  0.1160  0.1899
    1W        W34968  14.209  20.982   0.677 -0.1765  0.0690 -0.1102
    1W        W34969   5.699   4.124   0.931  0.1251 -0.0477  0.0513
    1W        W34970   7.071  27.642   2.470  0.1271  0.1353  0.3693
    1W        W34971  21.189  26.459   8.209 -0.1502  0.1292 -0.3274
    1W        W34972  12.143  22.000   8.338  0.1032 -0.1633 -0.1779
    1W        W34973  24.356   2.181   7.858 -0.4514 -0.0425 -0.1125
    1W        W34974  23.804   9.317   0.517 -0.0813  0.0743  0.2892
    1W        W34975  13.219  18.751   8.648 -0.2640 -0.2912  0.2704
    1W        W34976   7.702  11.217   7.693 -0.0472  0.0648  0.1174
    1W        W34977  25.809   0.098   6.682 -0.2228 -0.0828  0.1498
    1W        W34978   5.799  11.365   1.457  0.2578 -0.2064  0.0346
    1W        W34979  15.144   3.448   0.532 -0.0505  0.3077  0.3006
    1W        W34980  22.431  28.129   2.837  0.0886 -0.0891 -0.2774
    1W        W34981  16.534  24.401   7.462 -0.0298 -0.1153 -0.0975
    1W        W34982  11.203  13.666   1.080  0.1053 -0.1197  0.0149
    1W        W34983  12.747  18.420   9.006 -0.1110 -0.0137  0.1053
    1W        W34984  13.602  10.934   1.777  0.1049 -0.1305  0.0495
    1W        W34985  10.408   4.602   0.917  0.1522 -0.0011 -0.1160
    1W        W34986  20.310  16.377   8.969 -0.0815  0.2452  0.2531
    1W        W34987   1.675   6.430   2.532 -0.0102 -0.0523  0.2521
    1W        W34988  17.385  28.056   8.060  0.2156  0.0273  0.1972
    1W        W34989   8.475  27.135   0.927  0.0200  0.0947 -0.2059
    1W        W34990  27.842   0.699   7.068  0.1970 -0.0540 -0.1133
    1W        W34991   7.148   4.760   7.361  0.0367 -0.1510  0.0269
    1W        W34992   0.504  11.452   7.190  0.0146  0.4470 -0.1558
    1W        W34993  23.520   5.165   8.322 -0.2354  0.0295  0.1676
    1W        W34994  23.002   3.177   0.059  0.1124 -0.3549 -0.1052
    1W        W34995   5.664  23.846   0.614 -0.1903  0.2165 -0.1765
    1W        W34996   2.798   3.316   1.583 -0.1788  0.2758  0.1845
    1W        W34997  14.472  28.223   1.269  0.0362 -0.3569 -0.2110
    1W        W34998  28.698  29.404   8.057 -0.2115  0.0371  0.2701
    1W        W34999  20.123   3.835   8.689  0.1019 -0.0924  0.4035
    1W        W35000  13.633  27.651   0.186  0.2574 -0.0688 -0.1209
    1W        W35001  27.128  21.832   5.765 -0.0403  0.1279 -0.2729
    1W        W35002  19.205  14.987   7.663 -0.0238 -0.1701 -0.1592
    1W        W35003   7.939  29.331   8.757 -0.2752  0.1365  0.2157
    1W        W35004  10.525  27.079   2.725  0.0367  0.0149  0.1546
    1W        W35005  14.594  14.242   8.529 -0.1664 -0.3126  0.0648
    1W        W35006  26.164   4.255   1.531 -0.1978 -0.2648 -0.0996
    1W        W35007   2.282  20.468   1.081  0.4698 -0.1321  0.2758
    1W        W35008   5.928  28.803   9.244 -0.1211 -0.1312  0.2263
    1W        W35009   7.769   8.956   0.543  0.0634 -0.1794 -0.0148
    1W        W35010   2.155  20.241   8.413 -0.1551 -0.0303  0.0625
    1W        W35011  13.914   5.659   9.393  0.2062 -0.3154  0.0145
    1W        W35012  23.888  21.306   7.558 -0.0715 -0.0262 -0.0491
    1W        W35013   1.958  16.761   6.714 -0.3234 -0.3165  0.1309
    1W        W35014  24.306   1.217   8.009  0.2377 -0.3188  0.0150
    1W        W35015  25.299   6.854   0.596 -0.3198  0.1200 -0.0380
    1W        W35016  13.414  28.859   8.262  0.2566 -0.0099 -0.2371
    1W        W35017  23.813   0.661   2.327  0.2152 -0.1105  0.2465
    1W        W35018   8.810   8.181   1.052 -0.1205  0.0703 -0.1939
    1W        W35019  24.729   3.169   8.820 -0.0269  0.0348 -0.1875
    1W        W35020  22.821   9.433   8.589  0.2163  0.0795  0.2515
    1W        W35021  18.490  24.100   0.529  0.1779 -0.4167  0.1899
    1W        W35022   1.311   2.380   0.801  0.0596  0.2050 -0.2915
    1W        W35023  12.062  27.638   3.683 -0.2032 -0.4032  0.2279
    1W        W35024  17.164   1.962   2.710 -0.0540 -0.0257 -0.2421
    1W        W35025  10.155  16.850   8.637  0.2615  0.0154  0.0818
    1W        W35026  26.396  24.404   0.942  0.1370 -0.1611 -0.3182
    1W        W35027  16.135  28.876   7.648  0.3170  0.0204 -0.0386
    1W        W35028   7.754  25.357   6.974  0.1115 -0.1588 -0.1141
    1W        W35029  25.865  18.131   6.196  0.1299  0.1336  0.0425
    1W        W35030   1.798  10.724   7.514 -0.0483 -0.1212  0.2689
    1W        W35031  12.486  15.024   0.114  0.0450  0.3375  0.1188
    1W        W35032  17.429  26.553   0.140  0.3680  0.1592  0.0308
    1W        W35033  11.669   6.827   1.415  0.2772  0.0325  0.0440
    1W        W35034  19.723  27.481   8.667  0.0065  0.0467  0.3361
    1W        W35035  20.372  12.024   8.827 -0.1846 -0.0288 -0.0991
    1W        W35036   4.526   9.388   1.406 -0.0417 -0.0896  0.1988
    1W        W35037   0.509   7.516   9.381 -0.0050 -0.1406  0.2445
    1W        W35038  23.428  13.433   8.249 -0.0937  0.1018  0.0822
    1W        W35039  29.691  11.197   0.975  0.2448 -0.0267 -0.0574
    1W        W35040  19.004  21.477   1.487  0.0716 -0.1842 -0.1459
    1W        W35041  16.180   8.887   1.409 -0.2544 -0.3822  0.0090
    1W        W35042  21.732  22.733   6.322 -0.0260  0.0725  0.0661
    1W        W35043  14.954   4.140   0.484  0.1853 -0.0242 -0.1315
    1W        W35044  18.627  27.414   0.434  0.1252 -0.0448 -0.0589
    1W        W35045  28.955   8.483   1.514  0.4549 -0.2488 -0.0062
    1W        W35046  11.645   4.116   0.163 -0.3790 -0.3672  0.0181
    1W        W35047  13.855  22.024   8.129  0.2202 -0.1487  0.1646
    1W        W35048   1.734  22.312   5.158 -0.0191  0.0669  0.3578
    1W        W35049  24.607  29.164   2.557  0.4631 -0.0695 -0.2743
    1W        W35050  10.817  15.068   1.748 -0.3988 -0.0877 -0.1527
    1W        W35051  17.670   9.323   1.628 -0.2968 -0.3632  0.1685
    1W        W35052   5.432   3.165   8.354  0.0768  0.1291 -0.0143
    1W        W35053  29.673  21.664   2.057  0.0241  0.1289  0.0664
    1W        W35054  25.210  17.502   1.949  0.1043  0.1697  0.1737
    1W        W35055   2.593   3.880   7.393 -0.1034  0.1047 -0.1009
    1W        W35056   0.941  16.438   8.729  0.2338  0.1728  0.1245
    1W        W35057  11.361   6.829   0.170  0.1509 -0.2154 -0.1594
    1W        W35058  24.152   2.880   8.875 -0.2743 -0.0389  0.0831
    1W        W35059  13.024   9.515   2.041 -0.1240  0.2151 -0.1624
    1W        W35060  27.706   2.704   6.323  0.1717  0.0900  0.1595
    1W        W35061  15.245  26.487   2.135 -0.0145 -0.0361 -0.0582
    1W        W35062  17.775  16.902   8.920  0.2834 -0.2943 -0.2421
    1W        W35063  28.949  14.898   5.239  0.1495 -0.1932  0.1890
    1W        W35064  10.695  19.440   8.911 -0.3182 -0.0759  0.0045
    1W        W35065  17.441  16.552   1.786  0.2210  0.0490  0.2983
    1W        W35066   5.717  23.829   6.785  0.1556  0.2073  0.1719
    1W        W35067  23.133  12.543   0.489 -0.0859 -0.0381 -0.0277
    1W        W35068  14.060  13.071   7.658  0.2073  0.1297  0.0497
    1W        W35069  17.899  21.047   9.396  0.0915  0.1464 -0.1630
    1W        W35070  13.530   3.432   1.463 -0.3262  0.1478 -0.0588
    1W        W35071  21.284  20.160   1.855  0.1891 -0.2246 -0.3517
    1W        W35072   1.159  23.933   8.274 -0.0012  0.1313 -0.0435
    1W        W35073  28.602  28.810   8.618 -0.3708  0.1923 -0.1508
    1W        W35074  25.189  26.133   7.122  0.1319 -0.3093  0.0018
    1W        W35075  29.924  20.934   1.498  0.2078 -0.2988  0.1664
    1W        W35076   4.596   4.410   0.660  0.1301  0.6749 -0.0747
    1W        W35077   9.529   3.422   0.990 -0.0246  0.0674  0.3126
    1W        W35078  19.346  25.148   1.509 -0.0905 -0.1619 -0.1599
    1W        W35079  27.623  18.468   2.293  0.1161  0.0120 -0.0280
    1W        W35080  12.478   8.234   3.110 -0.0731  0.0040 -0.3926
    1W        W35081  24.858  25.615   3.483  0.1791  0.3411  0.0280
    1W        W35082  13.475  29.361   2.902 -0.1711  0.2828 -0.3769
    1W        W35083  26.770   5.626   9.073  0.0212  0.0360  0.2065
    1W        W35084  11.957  11.916   8.221 -0.1302  0.2136 -0.1485
    1W        W35085   1.407  18.306   5.210 -0.0549 -0.0624  0.0965
    1W        W35086  14.720   8.717   2.955 -0.1051 -0.3209 -0.2159
    1W        W35087  27.231   4.732   8.707 -0.0323  0.0700 -0.2768
    1W        W35088   0.278  29.490   1.155  0.0493 -0.1968  0.0347
    1W        W35089  20.398  21.967   8.859  0.1634  0.2143 -0.1802
    1W        W35090   1.805  22.054   0.183  0.2003 -0.1213  0.1125
    1W        W35091   6.076   7.849   1.268  0.4762 -0.1202 -0.1561
    1W        W35092  17.709  28.376   1.557 -0.3111  0.0590 -0.0877
    1W        W35093  17.421  22.581   1.275 -0.0607  0.1867 -0.0541
    1W        W35094  18.147   6.106   8.448  0.1105  0.1243  0.1930
    1W        W35095   4.380   5.293   9.255 -0.0271  0.0929  0.2755
    1W        W35096  12.419  15.489   9.364  0.0217 -0.2207 -0.0015
    1W        W35097  21.862  21.633   6.909 -0.0898  0.2515  0.2325
    1W        W35098  28.277   6.945   2.121  0.0079  0.0285  0.3396
    1W        W35099  24.736  16.263   0.303  0.1961  0.1444 -0.1032
    1W        W35100  13.540   0.451   1.393  0.1428  0.0385 -0.3153
    1W        W35101  25.850   0.834   1.286  0.0476  0.0513  0.2900
    1W        W35102   7.657   2.414   6.320  0.3159 -0.1834 -0.0327
    1W        W35103  24.240   8.077   1.765  0.1911 -0.1501 -0.2869
    1W        W35104  17.511  17.330   8.888 -0.0556 -0.1231 -0.0616
    1W        W35105   3.637  25.732   0.294 -0.0847  0.0786 -0.0231
    1W        W35106  11.158   0.552   1.702  0.2288  0.3984 -0.2962
    1W        W35107  12.822  26.126   0.412 -0.0761  0.3448 -0.2977
    1W        W35108  13.845   8.708   8.477  0.0861 -0.0527 -0.0578
    1W        W35109   4.824   9.822   0.377 -0.1825  0.0213  0.1829
    1W        W35110   2.462  12.922   6.853  0.2204 -0.0185  0.3756
    1W        W35111   9.600  19.127   8.195  0.4144  0.1910  0.2137
    1W        W35112   2.189  26.060   1.692  0.0318  0.0769 -0.3110
    1W        W35113   2.486  30.072   7.732  0.0622 -0.0397 -0.2273
    1W        W35114  24.448  17.595   0.815  0.0369 -0.2890  0.1308
    1W        W35115  13.878   9.422   2.471 -0.0061 -0.0862  0.1558
    1W        W35116  16.944  11.382   1.862  0.2981 -0.1330  0.1444
    1W        W35117  21.907   7.409   1.531  0.1665  0.1549  0.1682
    1W        W35118   4.887  12.665   8.080 -0.1729 -0.0358 -0.0953
    1W        W35119  20.575  12.501   7.860  0.2160 -0.1411 -0.0017
    1W        W35120   9.444  15.257   1.988  0.0370  0.0213 -0.0152
    1W        W35121  10.925   4.863   2.990 -0.4312 -0.0374  0.2451
    1W        W35122   8.044   6.974   7.487 -0.2117 -0.0101  0.0985
    1W        W35123   8.922  25.316   6.800 -0.1372  0.1236  0.1876
    1W        W35124  25.861   6.819   2.150  0.2194  0.3189  0.0335
    1W        W35125  17.458   8.444   0.184  0.0651  0.1695 -0.2443
    1W        W35126  12.294   0.930   2.068 -0.3666 -0.0346  0.2691
    1W        W35127  25.109  20.031   8.811 -0.0121  0.2681  0.0676
    1W        W35128   9.645  25.953   7.564 -0.0661  0.0244 -0.2792
    1W        W35129  18.699  13.580   8.874 -0.2130  0.0216  0.0408
    1W        W35130  16.478  16.209   0.745 -0.3040  0.1960  0.0910
    1W        W35131  26.141  26.405   0.803  0.2060  0.2188 -0.0566
    1W        W35132  19.531  15.866   7.057  0.1075 -0.0664 -0.3254
    1W        W35133   3.181  20.554   8.052 -0.1962 -0.3117  0.2273
    1W        W35134  19.413  10.107   1.539  0.3461 -0.0022  0.0389
    1W        W35135  28.680  14.844   1.537 -0.0811 -0.4323 -0.0023
    1W        W35136   2.528   2.648   3.155  0.1059 -0.0081 -0.0540
    1W        W35137  12.074   8.260   0.379 -0.2673 -0.0974  0.1773
    1W        W35138   8.591  21.485   8.819  0.2252  0.0150  0.0551
    1W        W35139   9.059   7.325   3.287  0.0905 -0.0575 -0.3749
    1W        W35140   4.184  20.578   7.961 -0.2540  0.3083 -0.0744
    1W        W35141   8.405  28.972   7.513  0.2359 -0.0665  0.3466
    1W        W35142   7.507  13.170   7.226 -0.2412 -0.0951 -0.1773
    1W        W35143  15.805  14.825   8.259  0.2219 -0.0822  0.0801
    1W        W35144   4.961  23.748   6.062 -0.0229 -0.2587  0.0914
    1W        W35145  15.008  13.712   0.855  0.0465  0.2088 -0.0258
    1W        W35146  10.566  13.923   9.119  0.0546 -0.1527  0.0631
    1W        W35147   8.944  25.358   7.670 -0.0185  0.1403  0.3710
    1W        W35148  25.029  25.943   9.270  0.0088  0.0943 -0.2230
    1W        W35149   0.084  25.841   1.181 -0.1540  0.1340 -0.0388
    1W        W35150  19.362   3.509   1.135 -0.3178 -0.0729  0.0982
    1W        W35151   4.532   9.522   0.651  0.0337  0.0406  0.0153
    1W        W35152   0.369  25.600   7.111  0.0107  0.1984 -0.2489
    1W        W35153   4.859  10.075   1.172 -0.0224 -0.0139 -0.0385
    1W        W35154  14.913  17.530   0.411 -0.1812 -0.0690  0.1080
    1W        W35155  26.856  13.366   4.901 -0.0636  0.2247  0.0279
    1W        W35156   4.540  24.577   8.185  0.2586  0.1763 -0.0646
    1W        W35157  18.684  25.019   3.275  0.1037  0.2280 -0.1436
    1W        W35158  28.994  24.386   1.166 -0.2481  0.1718 -0.1161
    1W        W35159  22.415  17.495   6.519 -0.1337  0.0372 -0.0902
    1W        W35160  27.798  19.461   7.507 -0.1336  0.2050 -0.0015
    1W        W35161   3.677  28.990   2.137  0.1295  0.1080 -0.1050
    1W        W35162  14.594  18.429   8.709 -0.0643  0.0322 -0.0031
    1W        W35163   4.032  17.461   6.710 -0.1118  0.0016  0.0721
    1W        W35164  17.758   0.998   0.231 -0.0288  0.2962  0.3650
    1W        W35165  10.712  25.741   1.867 -0.1082  0.1424 -0.1342
    1W        W35166   1.203  10.249   0.277 -0.2569 -0.1251  0.5782
    1W        W35167  22.648  17.196   1.373  0.1726  0.0292 -0.0360
    1W        W35168   3.864  23.165   5.217 -0.0076 -0.0832  0.2527
    1W        W35169   1.681  25.461   2.374 -0.1262 -0.2381 -0.2032
    1W        W35170  22.960  30.105   6.988 -0.0819 -0.1699 -0.2524
    1W        W35171  26.802  14.696   6.291 -0.0323  0.0688 -0.2293
    1W        W35172  28.210   2.080   2.243  0.1074 -0.0564 -0.1118
    1W        W35173   3.366  29.428   3.516  0.0812 -0.1176 -0.3616
    1W        W35174  18.499   5.474   1.621  0.0944 -0.2127 -0.1329
    1W        W35175  12.766   8.350   1.715 -0.0953 -0.0066  0.2101
    1W        W35176   5.034  14.058   0.616 -0.0328 -0.0313  0.0766
    1W        W35177   5.492  13.581   1.595 -0.1255 -0.0621 -0.1512
    1W        W35178   7.326   0.502   0.422  0.1528 -0.1488 -0.0570
    1W        W35179  23.870  12.400   7.256  0.0570  0.0383 -0.2430
    1W        W35180  11.963   9.241   3.443 -0.0261 -0.0377  0.2327
    1W        W35181  29.493  12.943   7.694 -0.3263  0.2999  0.2706
    1W        W35182  29.850  20.472   0.689  0.0950  0.2077  0.0488
    1W        W35183  14.976  19.868   1.670 -0.0204  0.0225 -0.2684
    1W        W35184  28.734  15.652   0.309  0.1066 -0.0380  0.1865
    1W        W35185  28.784  17.040   7.197 -0.3818  0.3904 -0.3383
    1W        W35186  12.896  15.898   7.466 -0.0009  0.1522  0.0547
    1W        W35187  18.504   7.738   1.830  0.2419 -0.0093 -0.0916
    1W        W35188   6.463   6.992   7.101  0.2192  0.0781 -0.0355
    1W        W35189   8.291  13.674   1.134  0.0734  0.1367 -0.0516
    1W        W35190  19.006   3.001   2.783 -0.0075 -0.2210  0.1554
    1W        W35191  23.824  13.114   6.709  0.1082 -0.0841  0.0501
    1W        W35192   5.150   7.731   3.687  0.1287  0.0827  0.1659
    1W        W35193  12.014  12.305   0.126  0.4201 -0.1190 -0.1173
    1W        W35194  26.655  24.922   2.003 -0.1369 -0.0032  0.2356
    1W        W35195   8.555  27.023   8.730 -0.0071 -0.0162 -0.0764
    1W        W35196  10.639  13.905   7.598  0.0318 -0.0516 -0.1006
    1W        W35197   1.217   4.247   8.036  0.2008  0.1493 -0.1014
    1W        W35198   6.926  18.264   7.289 -0.1753 -0.2083  0.0055
    1W        W35199   6.872   2.508   0.299  0.1344  0.0067 -0.1116
    1W        W35200  26.075  10.748   7.749  0.2419  0.1197 -0.0133
    1W        W35201  21.996  25.484   9.279  0.2564 -0.0693 -0.1931
    1W        W35202  10.811  10.818   2.437 -0.0103 -0.0761 -0.0056
    1W        W35203  18.634  29.963   8.139  0.0209 -0.3090  0.0856
    1W        W35204  25.197  16.776   0.305  0.0633  0.0567 -0.1308
    1W        W35205   2.091  29.725   2.788  0.2683 -0.1064  0.1562
    1W        W35206   7.865   0.182   8.265 -0.1061 -0.0298 -0.1740
    1W        W35207  29.315   1.518   1.648 -0.1762  0.0083  0.1988
    1W        W35208  21.859   1.227   6.726 -0.0569  0.0880 -0.0732
    1W        W35209   3.358  10.990   7.494 -0.1774 -0.1036 -0.1158
    1W        W35210  27.345   7.605   9.014 -0.1577 -0.0585  0.0908
    1W        W35211  15.540  15.454   0.163  0.0238 -0.1034 -0.1099
    1W        W35212  18.192  20.384   8.446 -0.0438 -0.2605 -0.2019
    1W        W35213  11.265  29.202   2.150  0.1657  0.1873  0.0947
    1W        W35214  23.312   6.327   0.907 -0.0031 -0.0776 -0.0172
    1W        W35215  16.536  20.227   9.214  0.3406  0.1111 -0.0357
    1W        W35216   5.469  29.326   1.569  0.0195  0.0438 -0.0874
    1W        W35217  17.990  24.771   8.482  0.0527  0.2110 -0.0076
    1W        W35218   1.855   1.441   2.928  0.2223 -0.0648 -0.3456
    1W        W35219   2.646  14.093   7.203 -0.2102 -0.0695  0.0437
    1W        W35220  10.924  11.686   7.890  0.0865 -0.3218 -0.0107
    1W        W35221  29.426  18.362   7.262 -0.0115 -0.0522 -0.0924
    1W        W35222   9.969  22.521   8.084  0.0848 -0.3936 -0.3254
    1W        W35223   9.827   4.055   9.084 -0.1468 -0.1348  0.0597
    1W        W35224  23.505   1.591   1.187  0.2136 -0.1005 -0.2353
    1W        W35225   0.563   8.677   6.520  0.1446 -0.0690 -0.3563
    1W        W35226  16.877   0.391   6.635  0.1860  0.4439  0.0102
    1W        W35227   6.547  17.321   0.490 -0.0601 -0.0020 -0.1093
    1W        W35228  13.761  26.634   1.979  0.1758 -0.1276  0.0327
    1W        W35229  12.063  25.422   6.479 -0.0483  0.2361  0.1012
    1W        W35230  27.969   6.916   6.745  0.0203  0.3073 -0.2583
    1W        W35231   0.709  10.297   8.584 -0.0311  0.1768 -0.0231
    1W        W35232  10.682  24.875   7.665  0.0313  0.1807  0.1499
    1W        W35233  20.149   7.534   2.615 -0.2141  0.0373  0.0201
    1W        W35234   9.535   6.014   6.780 -0.1761 -0.1098 -0.1673
    1W        W35235   2.866  29.319   3.318 -0.1449 -0.1035 -0.0328
    1W        W35236  23.751  16.427   8.405 -0.0362 -0.4168 -0.0223
    1W        W35237  15.660  18.399   8.526 -0.0506  0.2035  0.1243
    1W        W35238  26.340  11.318   0.711 -0.0635  0.2249  0.1000
    1W        W35239  14.491  23.978   7.758 -0.3231 -0.3521 -0.0892
    1W        W35240   4.183  17.445   8.799 -0.0664 -0.0731  0.2197
    1W        W35241   1.704   6.182   0.780  0.2293  0.3169  0.2888
    1W        W35242  11.114  21.894   8.422  0.1035  0.4122  0.1649
    1W        W35243   5.501   9.748   0.916 -0.1625  0.3011  0.0687
    1W        W35244  13.985  12.011   8.746 -0.1393 -0.3329 -0.0986
    1W        W35245   1.925   3.700   6.143 -0.3930  0.1160  0.2639
    1W        W35246  26.272   1.521   0.774 -0.0902 -0.2437 -0.0166
    1W        W35247  15.714  20.742   7.438 -0.1928  0.0987  0.0596
    1W        W35248  29.163  16.386   1.426  0.0250  0.1050  0.0609
    1W        W35249  23.674  13.973   0.261  0.1215  0.0127 -0.1424
    1W        W35250  10.175  13.966   9.362 -0.3607 -0.1488 -0.0244
    1W        W35251  23.527  16.822   1.028  0.2429 -0.0937  0.0153
    1W        W35252  16.600   1.210   7.644 -0.2014 -0.1920  0.0144
    1W        W35253   8.524   2.493   0.266  0.1951 -0.2891  0.2173
    1W        W35254  27.890  17.483   0.334  0.2016  0.0886  0.0699
    1W        W35255  26.882   9.057   8.696  0.3337 -0.0286  0.1385
    1W        W35256  18.072  24.217   0.261 -0.1165  0.3239 -0.0901
    1W        W35257  12.213  15.813   0.951 -0.0559 -0.4029  0.0269
    1W        W35258   1.513  20.270   8.915  0.0069  0.1240  0.4016
    1W        W35259  21.818   9.974   9.363 -0.2352  0.3468  0.0710
    1W        W35260   7.701  28.037   3.543  0.1842 -0.1034 -0.0737
    1W        W35261   4.177   9.819   9.152  0.0387 -0.2613 -0.2474
    1W        W35262  11.927  15.635   1.854  0.1124 -0.1685  0.0673
    1W        W35263  27.537   1.198   1.378  0.0037  0.2715  0.0431
    1W        W35264  18.713  17.355   1.141 -0.0324  0.0187  0.1435
    1W        W35265  23.633  17.641   7.204  0.1484 -0.0710 -0.2047
    1W        W35266  24.939   5.974   2.746 -0.1278 -0.0248  0.0257
    1W        W35267  27.292  18.317   8.795  0.0268 -0.1521  0.2437
    1W        W35268   7.564   0.973   0.371  0.1677  0.0677  0.1582
    1W        W35269  11.725  22.349   2.040 -0.1920 -0.0550  0.0654
    1W        W35270   9.422  30.128   2.751  0.0978  0.1653 -0.2266
    1W        W35271  21.828   5.620   8.255 -0.0688  0.0353  0.1032
    1W        W35272   1.259  10.150   1.801  0.0399 -0.3499 -0.3118
    1W        W35273   2.425  11.972   0.876 -0.0505  0.2609 -0.3370
    1W        W35274   9.704  20.966   6.949  0.0525 -0.2419  0.1282
    1W        W35275  22.467  29.482   7.563 -0.0008  0.1160 -0.1426
    1W        W35276  14.376   1.930   2.092 -0.0024 -0.3112 -0.2787
    1W        W35277   9.770  29.465   9.227  0.3253  0.2149 -0.0708
    1W        W35278   4.471  17.083   8.517  0.0355  0.2089 -0.3541
    1W        W35279   0.065   9.830   7.979  0.1458 -0.2507 -0.2742
    1W        W35280  10.734   4.975   2.488  0.5466 -0.2193 -0.2699
    1W        W35281  14.005  23.932   7.696 -0.2996  0.1456  0.0705
    1W        W35282   0.083  13.944   6.920 -0.0254  0.0138 -0.3216
    1W        W35283  17.207   5.926   1.381 -0.1521  0.1852 -0.0075
    1W        W35284   8.677  28.664   0.321  0.2791  0.3701 -0.0624
    1W        W35285   8.350  14.314   7.228 -0.0687 -0.0747  0.1232
    1W        W35286   4.330   7.528   1.840  0.1110 -0.0597  0.0416
    1W        W35287   6.990  17.313   1.237  0.3646 -0.1102 -0.2528
    1W        W35288   2.606  27.586   7.981  0.0438 -0.4182  0.1294
    1W        W35289  30.018   8.369   6.121 -0.2675  0.0729  0.0703
    1W        W35290   3.124  18.432   1.981 -0.0401 -0.0026 -0.1670
    1W        W35291  23.573   7.694   8.220  0.0668  0.2149 -0.1339
    1W        W35292  22.289   6.123   1.093  0.0447  0.2758  0.1030
    1W        W35293  12.415  25.743   1.319 -0.0403 -0.0720  0.1240
    1W        W35294  24.476   3.579   2.512  0.1050 -0.1652  0.1569
    1W        W35295   9.805   7.539   9.307  0.0668  0.2448  0.2752
    1W        W35296  30.117  29.766   8.770  0.0280  0.1958  0.3634
    1W        W35297  26.403  24.835   1.292  0.0936  0.1643  0.1455
    1W        W35298  24.975  14.982   8.521 -0.0835 -0.2613 -0.0599
    1W        W35299  15.122   0.110   2.082  0.1911 -0.0849  0.2967
    1W        W35300  11.086  18.777   8.199 -0.1735 -0.0511  0.0742
    1W        W35301  28.173  20.773   8.526  0.2694 -0.2093  0.0928
    1W        W35302   0.777  18.940   1.127  0.0578  0.1594 -0.2152
    1W        W35303   2.985   0.717   1.629  0.0600 -0.1925  0.0758
    1W        W35304  26.324  15.115   5.785 -0.1908 -0.0244 -0.2569
    1W        W35305   0.022   7.922   8.751  0.0541 -0.2036  0.1930
    1W        W35306  10.175   1.231   1.480  0.4101  0.1796 -0.2079
    1W        W35307  26.560  13.458   8.658  0.1973  0.0665 -0.2927
    1W        W35308  12.280   4.655   2.296 -0.1939 -0.3545  0.1389
    1W        W35309  24.054   4.697   3.471  0.0587 -0.2491 -0.1615
    1W        W35310   8.976  20.423   0.875 -0.0116 -0.0572 -0.0096
    1W        W35311   8.402  28.115   9.251 -0.1723 -0.1996 -0.1141
    1W        W35312  27.963  11.539   8.739 -0.1601  0.0053 -0.2088
    1W        W35313   0.624  19.887   1.066  0.1141  0.0764 -0.0480
    1W        W35314  16.635  16.687   0.811 -0.0218  0.0175  0.1145
    1W        W35315  22.947  27.605   1.790  0.1752  0.0573  0.1644
    1W        W35316  13.839   1.414   1.218 -0.1588 -0.1166  0.2020
    1W        W35317  17.185  10.187   9.380  0.0452  0.0237 -0.1362
    1W        W35318   0.675  21.221   6.307  0.0367  0.0369  0.3969
    1W        W35319  14.851   2.917   8.824  0.1764 -0.0613  0.2081
    1W        W35320  27.843   1.729   2.502 -0.0532  0.1225 -0.3495
    1W        W35321   9.501  13.926   0.691  0.1308  0.1233 -0.0036
    1W        W35322  27.349  24.290   1.777  0.2343  0.1743 -0.1277
    1W        W35323  26.777  16.945   9.309 -0.1353 -0.1153 -0.0324
    1W        W35324  19.321  14.222   1.362  0.2202 -0.2166 -0.1045
    1W        W35325   0.929  20.728   1.181  0.0223  0.0066  0.1152
    1W        W35326  21.810   5.062   7.446  0.0681 -0.3640  0.0307
    1W        W35327  11.959  27.351   0.943 -0.0110 -0.0651 -0.0261
    1W        W35328   6.508  21.667   6.641 -0.1631  0.0142  0.0116
    1W        W35329   0.066   6.603   0.655  0.0425  0.0914  0.0713
    1W        W35330  21.456   7.082   0.125  0.2884 -0.0672  0.1483
    1W        W35331  18.458   4.319   9.322 -0.1189 -0.1440 -0.1870
    1W        W35332  26.480  26.566   7.828 -0.1418 -0.1862 -0.0184
    1W        W35333  13.027   0.437   1.351  0.0153 -0.4487  0.4050
    1W        W35334  19.688  28.384   2.627 -0.0254  0.3413  0.3036
    1W        W35335  22.578  29.784   8.590 -0.2163 -0.1022 -0.0466
    1W        W35336   3.383  14.051   1.332  0.0957 -0.0480  0.0518
    1W        W35337  14.220  10.148   1.605 -0.0297 -0.2564 -0.2440
    1W        W35338  26.337  11.372   6.437  0.0839 -0.1066  0.1849
    1W        W35339   9.618   3.353   7.406 -0.0932  0.1895 -0.2414
    1W        W35340  13.218   3.732   2.681  0.1908  0.1599  0.1751
    1W        W35341  22.889  14.044   0.673 -0.0736  0.2931 -0.2641
    1W        W35342  20.083  25.544   9.246 -0.2244  0.0276  0.0618
    1W        W35343   1.870  23.681   5.840 -0.1293 -0.0244  0.1288
    1W        W35344  15.671  21.727   2.417 -0.1671 -0.0384  0.1697
    1W        W35345   7.419  11.055   3.307 -0.3896 -0.1509 -0.0401
    1W        W35346  25.206  15.732   8.876 -0.0433 -0.1121 -0.1278
    1W        W35347   3.697  13.831   8.372 -0.0466 -0.1630 -0.0493
    1W        W35348   1.038  29.899   1.928  0.2479 -0.2171 -0.0800
    1W        W35349  26.475  11.131   1.541 -0.0692  0.0010 -0.0925
    1W        W35350   1.286  24.562   7.047  0.0458 -0.2158 -0.2021
    1W        W35351   8.477  12.532   0.617  0.0688 -0.1424 -0.3033
    1W        W35352  15.613  29.979   8.357 -0.2184 -0.2495  0.2392
    1W        W35353  13.557  21.796   6.917  0.2228  0.1652 -0.1098
    1W        W35354   6.028   8.536   0.802  0.0575 -0.2683  0.2868
    1W        W35355  19.861  20.940   8.978 -0.2497  0.4650  0.1108
    1W        W35356  16.351   8.256   7.673  0.1623  0.0447 -0.1570
    1W        W35357  13.929   0.769   1.713 -0.0367  0.1173  0.0666
    1W        W35358  20.277  17.627   8.412 -0.0696 -0.2939 -0.0464
    1W        W35359   9.849  23.923   1.027  0.1087 -0.2054  0.1188
    1W        W35360  25.894  11.618   6.553  0.0891 -0.3165 -0.1165
    1W        W35361  21.667  16.243   1.296 -0.4404 -0.1640 -0.0534
    1W        W35362  25.040  22.227   0.803 -0.0685  0.0655 -0.5005
    1W        W35363  28.899   2.768   1.245 -0.2416  0.1444 -0.2353
    1W        W35364  11.938  10.122   1.461  0.0054 -0.3931 -0.1048
    1W        W35365  12.094  14.827   8.221 -0.1650  0.1405  0.5161
    1W        W35366   1.724  25.619   9.041  0.0899  0.0066 -0.2251
    1W        W35367  25.538   5.321   8.796  0.0469  0.2259 -0.0373
    1W        W35368   3.573   0.159   1.059  0.1071  0.1811 -0.1355
    1W        W35369  18.258   3.215   2.028 -0.1545  0.1802 -0.0706
    1W        W35370  22.831  29.241   2.755 -0.1183  0.0706  0.1539
    1W        W35371  28.411   6.681   2.623 -0.2219  0.0358 -0.0938
    1W        W35372  18.506   1.767   7.939 -0.1407  0.1262 -0.0956
    1W        W35373   6.537  12.290   3.062  0.0819 -0.0289  0.3675
    1W        W35374  14.089  27.575   0.475  0.0177  0.3631  0.1852
    1W        W35375  20.196  25.093   9.373  0.3259 -0.0947 -0.1459
    1W        W35376  23.175   0.826   0.915 -0.3507 -0.2318 -0.2013
    1W        W35377   4.523  24.369   1.229 -0.1232 -0.3672  0.1571
    1W        W35378  25.840  13.993   5.554 -0.0802  0.0914 -0.0596
    1W        W35379  26.523   9.080   7.332 -0.0935  0.1502 -0.4495
    1W        W35380  27.495  20.396   7.236 -0.3005 -0.0296 -0.0939
    1W        W35381  24.767  19.489   0.799 -0.3187  0.0755  0.0235
    1W        W35382  28.050  27.317   2.571  0.0802  0.0417 -0.2312
    1W        W35383  13.634  25.228   0.412  0.2149  0.1000  0.4010
    1W        W35384   1.455   8.331   7.147 -0.0540 -0.2729  0.5682
    1W        W35385  26.215  24.713   8.126 -0.0808  0.3116  0.0487
    1W        W35386  19.236  23.540   2.664 -0.0459 -0.1584 -0.0950
    1W        W35387  23.833  17.715   1.853 -0.2268  0.1424 -0.0691
    1W        W35388   1.635  25.189   7.986  0.1238  0.3494 -0.3089
    1W        W35389   4.600  19.819   1.869 -0.1153  0.1138  0.3668
    1W        W35390   4.742   8.007   0.525 -0.1536  0.3674 -0.0896
    1W        W35391   8.722  18.028   8.310  0.2162 -0.3885  0.0614
    1W        W35392   6.404   0.857   3.303  0.0805 -0.0721 -0.1703
    1W        W35393  11.910  15.450   9.370 -0.0278  0.0966  0.0295
    1W        W35394  20.380   0.835   2.551 -0.0687 -0.3893 -0.1243
    1W        W35395   7.981   8.613   3.792  0.1409 -0.0328 -0.2390
    1W        W35396  16.352  26.832   2.627  0.0697  0.0331  0.0673
    1W        W35397  10.031  18.142   7.325  0.1075 -0.3334  0.3156
    1W        W35398  11.100  22.023   7.212 -0.1245  0.0343  0.2027
    1W        W35399   7.725  12.972   0.939 -0.0931  0.0764 -0.1704
    1W        W35400  10.724  26.575   8.930 -0.0920  0.4784 -0.0568
    1W        W35401  19.030  19.458   7.251 -0.2371  0.2511 -0.0564
    1W        W35402  29.540  15.725   9.031  0.1911 -0.2085 -0.0678
    1W        W35403  21.736   5.335   8.789  0.1318  0.0761  0.3455
    1W        W35404  14.543  13.290   8.386  0.1114  0.1695  0.1167
    1W        W35405  14.167   1.857   0.264 -0.2443 -0.1743 -0.1082
    1W        W35406   1.303   7.082   8.050  0.0077  0.1781  0.0094
    1W        W35407  27.610  10.721   1.768  0.0032 -0.2337 -0.1994
    1W        W35408   0.627  21.150   7.816 -0.3436 -0.0006 -0.3163
    1W        W35409   5.093   7.297   6.919  0.0856 -0.5336 -0.0240
    1W        W35410  28.625  26.016   0.914 -0.1391 -0.0875  0.4262
    1W        W35411  10.957  30.074   8.821 -0.2299  0.0213  0.1343
    1W        W35412  14.219   7.888   1.145  0.2019  0.0417  0.1257
    1W        W35413   0.335  27.742   2.907  0.1375  0.3639  0.0130
    1W        W35414  21.425   8.618   7.992  0.0057 -0.4668 -0.1597
    1W        W35415   5.549  14.040   1.246 -0.3450 -0.3278  0.0862
    1W        W35416   1.710  27.034   8.201  0.1239  0.0169 -0.0544
    1W        W35417  29.890  27.375   2.119  0.0414  0.1239 -0.3799
    1W        W35418  24.601  22.765   6.543  0.1912  0.1469 -0.0641
    1W        W35419  21.871  25.731   1.351 -0.2808  0.1502  0.0262
    1W        W35420  20.921  25.077   7.333 -0.1823 -0.1933  0.2363
    1W        W35421   8.833  12.056   3.462 -0.0973 -0.4082  0.3690
    1W        W35422   1.757   0.904   7.767  0.2311  0.2259 -0.0820
    1W        W35423  17.595  26.558   2.766  0.2480  0.1850  0.1914
    1W        W35424  12.001   5.955   0.277 -0.0765  0.2374  0.1830
    1W        W35425  12.533  24.699   0.742  0.0955 -0.1925  0.0345
    1W        W35426  22.253   8.147   8.400 -0.0450 -0.2388  0.0256
    1W        W35427  12.140  13.392   0.008 -0.0782 -0.1565  0.1819
    1W        W35428  14.619  22.123   8.031 -0.3312 -0.0844  0.2688
    1W        W35429  14.244  15.568   9.150 -0.0932 -0.1388  0.0915
    1W        W35430  13.239  12.763   1.853 -0.0598 -0.1967  0.0228
    1W        W35431  10.242   9.114   1.195  0.0839 -0.0990  0.1892
    1W        W35432  27.330  18.587   1.875 -0.0991 -0.3121  0.2401
    1W        W35433  11.932  14.126   8.672 -0.3209  0.0688 -0.0985
    1W        W35434  24.099  22.688   2.236  0.0075 -0.0027  0.0987
    1W        W35435   9.364   6.421   1.205  0.1090  0.0644 -0.1632
    1W        W35436  15.097  13.497   7.945  0.0912 -0.1658  0.1825
    1W        W35437   9.324  17.014   9.122 -0.1475 -0.0780 -0.0077
    1W        W35438   1.808  17.661   7.162  0.0143 -0.0031 -0.3659
    1W        W35439  26.253   9.840   8.843 -0.2483 -0.0575 -0.0515
    1W        W35440  21.249   9.985   2.190  0.0984  0.2299  0.2010
    1W        W35441   8.545  17.984   7.368  0.0033  0.0626 -0.1601
    1W        W35442  28.093   0.604   2.184  0.3367 -0.2064 -0.0065
    1W        W35443   4.231  15.248   1.401  0.0439  0.1551 -0.4467
    1W        W35444  21.988  24.668   0.226  0.0180 -0.2393  0.1409
    1W        W35445   4.654  24.791   5.119 -0.3304  0.0556 -0.2594
    1W        W35446   0.863  10.182   8.131  0.0683  0.1569  0.1762
    1W        W35447  25.943  17.893   1.459  0.1191  0.3192 -0.1575
    1W        W35448   0.892   2.070   0.593  0.3600 -0.3554 -0.0189
    1W        W35449   6.540  27.596   7.252 -0.0875 -0.0590 -0.0368
    1W        W35450  26.830  24.027   7.876  0.1285 -0.1092  0.0915
    1W        W35451  11.024   6.743   0.496  0.2524 -0.1374  0.3296
    1W        W35452   5.539   0.527   8.972 -0.0008 -0.2336 -0.1067
    1W        W35453  26.965  10.290   6.913 -0.3101 -0.2397  0.0709
    1W        W35454  14.093  11.161   3.022 -0.0362 -0.5297  0.1770
    1W        W35455  19.241   3.742   2.197 -0.1100  0.1429  0.2280
    1W        W35456  12.848  23.662   7.181 -0.2341  0.0056  0.3232
    1W        W35457  10.986  15.802   8.648  0.0468 -0.1582 -0.2006
    1W        W35458   9.362   4.660   8.441  0.2876 -0.0835  0.0580
    1W        W35459   4.223  27.752   9.134  0.0457 -0.2551  0.2253
    1W        W35460   4.537  10.253   3.164  0.1677 -0.1542 -0.0118
    1W        W35461  16.905  28.856   7.921  0.3563  0.1920 -0.2536
    1W        W35462  27.009   1.895   1.060 -0.0613 -0.0964  0.2844
    1W        W35463   3.327  30.130   2.251  0.0491  0.2787  0.1134
    1W        W35464  25.600  13.123   0.018  0.3022  0.0153 -0.2103
    1W        W35465   8.596  25.059   8.673 -0.0115 -0.1885  0.1137
    1W        W35466   3.331  26.994   0.193 -0.1036  0.1456  0.3517
    1W        W35467  26.955  22.342   7.354 -0.0938 -0.0214  0.0813
    1W        W35468  14.368  26.437   8.385 -0.0246 -0.1252 -0.1545
    1W        W35469  29.546  28.164   1.873  0.1688  0.1868 -0.1278
    1W        W35470   1.278   4.500   0.236 -0.1224 -0.2454  0.0930
    1W        W35471  13.125  25.192   2.829 -0.2114  0.1190  0.0245
    1W        W35472  23.156  14.401   1.634 -0.4507 -0.1036  0.3191
    1W        W35473   6.879  22.581   5.763 -0.2173  0.0024  0.2432
    1W        W35474  24.244   5.904   0.881  0.1159 -0.1715  0.0172
    1W        W35475   2.045  11.143   0.000 -0.1093  0.0784  0.1246
    1W        W35476  26.255  13.306   7.997 -0.1250  0.0510 -0.3822
    1W        W35477   5.255   0.024   1.540  0.0638 -0.3242  0.3290
    1W        W35478   9.892  29.506   7.371 -0.0815  0.1193 -0.0434
    1W        W35479  18.809  27.142   8.238  0.0974 -0.0098 -0.2755
    1W        W35480   4.691  19.516   9.253 -0.1527  0.0169  0.0116
    1W        W35481  29.551  13.275   2.118 -0.1574  0.4187 -0.0866
    1W        W35482  21.209   0.269   7.565 -0.3115 -0.0312 -0.3298
    1W        W35483  28.199   8.904   9.252  0.0808 -0.0758 -0.0605
    1W        W35484  27.225  27.824   8.824 -0.0433  0.2988  0.2153
    1W        W35485  25.794  22.884   7.140 -0.1681 -0.3301 -0.0972
    1W        W35486  27.592  18.277   1.455  0.4543 -0.0906 -0.0195
    1W        W35487  21.489  29.725   0.624 -0.0666 -0.3690  0.2786
    1W        W35488   3.084  13.378   0.410 -0.1315  0.1082  0.1440
    1W        W35489  29.173  13.276   7.934 -0.1558  0.0469  0.3153
    1W        W35490  25.817  17.648   6.016  0.1079 -0.2435 -0.0691
    1W        W35491   0.629  22.972   2.527 -0.0578 -0.4233 -0.0509
    1W        W35492  15.247  17.436   1.578  0.0361 -0.0383 -0.1075
    1W        W35493  28.016   6.165   7.526  0.1334  0.4057  0.3856
    1W        W35494  22.614  11.322   8.411 -0.0311  0.0149 -0.3071
    1W        W35495  26.441   5.110   1.159 -0.0514 -0.1044 -0.1353
    1W        W35496  27.481  16.878   7.611  0.0496 -0.2232 -0.1579
    1W        W35497  27.890  19.244   5.968 -0.3130  0.3683 -0.8168
    1W        W35498  12.953  14.612   7.881  0.0815  0.1472 -0.1616
    1W        W35499  14.355   5.846   0.033  0.1119 -0.1249  0.1756
    1W        W35500  15.160  12.538   2.303 -0.1633  0.1028  0.0603
    1W        W35501   0.568  19.488   0.386  0.0068  0.2922 -0.0819
    1W        W35502  18.741   2.498   2.656  0.0880 -0.1484 -0.0201
    1W        W35503  14.214   8.806   1.088 -0.0528 -0.1665 -0.0074
    1W        W35504  26.518   9.926   7.879  0.2410 -0.3774 -0.0526
    1W        W35505  22.856   0.681   8.590  0.2042 -0.0607 -0.2712
    1W        W35506  23.607  12.103   6.942 -0.2315 -0.3949  0.0889
    1W        W35507   2.486  18.218   0.387 -0.0942 -0.0775 -0.0478
    1W        W35508   0.354  23.149   9.109 -0.1543  0.1265  0.1572
    1W        W35509  19.656  20.219   7.150  0.1740 -0.1546 -0.2633
    1W        W35510  10.217   0.706   1.899  0.2331 -0.0242  0.1417
    1W        W35511   6.088  25.691   1.714 -0.0133 -0.1823  0.0097
    1W        W35512   7.246  20.219   9.150 -0.2268 -0.0914 -0.2697
    1W        W35513   2.927   2.557   7.845 -0.0569 -0.1426 -0.1690
    1W        W35514  13.788  26.151   0.621  0.2277 -0.2951 -0.1701
    1W        W35515  15.433  24.427   0.652  0.1161 -0.0077  0.1646
    1W        W35516  24.122  13.473   9.120 -0.2701 -0.2027 -0.2164
    1W        W35517  24.567   0.656   8.164 -0.1661  0.1419  0.1401
    1W        W35518  15.237   5.739   3.215 -0.0860  0.0730 -0.0464
    1W        W35519  22.714   6.508   7.581 -0.0593 -0.2321  0.1803
    1W        W35520  23.324   9.417   8.412 -0.2323 -0.1401 -0.3698
    1W        W35521   3.722  12.550   1.166 -0.0075 -0.0119  0.2679
    1W        W35522  25.191   3.324   0.158 -0.0926  0.0303  0.5829
    1W        W35523   3.262  12.209   1.450  0.4286  0.4043 -0.4285
    1W        W35524  18.324  23.918   8.407  0.1584  0.2149 -0.2386
    1W        W35525   9.254   3.072   6.469 -0.1568 -0.2886  0.1785
    1W        W35526   9.090  11.275   3.555 -0.0023  0.0913  0.0373
    1W        W35527  24.327  15.734   1.025  0.0811 -0.1970  0.1656
    1W        W35528   0.717  10.849   2.103  0.0508 -0.3232  0.0625
    1W        W35529  14.272  15.471   2.082  0.2287  0.1365  0.0426
    1W        W35530   9.462   3.825   8.653  0.3376  0.3487  0.4535
    1W        W35531  17.940   5.683   8.219  0.0245 -0.1105 -0.2467
    1W        W35532   2.342  11.494   1.007 -0.0649 -0.2875 -0.1469
    1W        W35533  15.460   5.745   2.323 -0.0220  0.1121  0.2108
    1W        W35534  25.865  24.021   2.476  0.0458  0.0409 -0.0246
    1W        W35535  13.011   9.390   8.271  0.2290  0.0421  0.2656
    1W        W35536  24.607  14.038   0.212  0.3784 -0.0133 -0.0825
    1W        W35537  25.870  13.803   7.317  0.2699  0.2910 -0.0680
    1W        W35538  19.445   9.091   7.985  0.1424 -0.1283  0.4602
    1W        W35539   1.555   0.318   0.368 -0.1590  0.2089 -0.0719
    1W        W35540   2.617  17.436   5.816 -0.0979 -0.1498 -0.1983
    1W        W35541   4.485   3.350   8.754  0.1478 -0.1152 -0.1120
    1W        W35542  13.942  27.541   1.892 -0.0142  0.2983 -0.2228
    1W        W35543  23.573  29.007   0.930  0.0146  0.0391  0.0263
    1W        W35544  19.511  16.671   0.919  0.0140  0.1209  0.1928
    1W        W35545  18.316   7.304   1.501  0.0047  0.0400  0.3844
    1W        W35546  29.634   3.461   1.935 -0.1793  0.1077  0.2070
    1W        W35547  23.278   5.562   6.986 -0.0230 -0.0548 -0.0402
    1W        W35548   9.064  17.070   7.484  0.1028  0.1247  0.1340
    1W        W35549  19.825  11.365   9.089  0.3104 -0.4855 -0.1401
    1W        W35550  24.434  18.661   6.883  0.0824 -0.1680 -0.2803
    1W        W35551  19.485   0.796   7.379 -0.0477  0.3920  0.1416
    1W        W35552  13.929  13.925   9.134  0.0490  0.6549  0.1410
    1W        W35553  18.145  10.126   9.073  0.1007  0.2846 -0.0584
    1W        W35554  29.169   4.295   7.568 -0.0118  0.1427 -0.0257
    1W        W35555  30.059   8.864   8.787 -0.0012 -0.1012  0.4898
    1W        W35556   4.295   4.147   2.773 -0.0255 -0.1656 -0.0432
    1W        W35557   1.133   3.451   6.128  0.1137 -0.1202  0.0518
    1W        W35558  10.756   1.085   0.442 -0.0944 -0.0908  0.1341
    1W        W35559  12.582  23.119   1.517  0.2073  0.3140  0.3838
    1W        W35560   7.926   0.970   8.757 -0.1221  0.1385 -0.3830
    1W        W35561  23.218  20.664   8.047  0.2609  0.1398  0.0986
    1W        W35562  11.987   3.279   7.887 -0.2730  0.1056 -0.2375
    1W        W35563   2.262   0.592   0.276  0.1261  0.0305 -0.2304
    1W        W35564  18.901  21.321   9.356 -0.3081 -0.1083  0.3242
    1W        W35565  29.376  13.290   1.235  0.0410  0.4748 -0.3989
    1W        W35566  23.567  29.991   0.696  0.3377 -0.1112 -0.0183
    1W        W35567  24.943  18.565   6.301  0.2173 -0.0282  0.4141
    1W        W35568  29.039   3.634   5.842 -0.2900 -0.1050  0.1881
    1W        W35569   0.127  13.317   7.097  0.2218  0.0131 -0.0697
    1W        W35570  16.908  19.786   1.521 -0.0004  0.1823 -0.1966
    1W        W35571  28.922   9.456   0.247  0.0767  0.1827 -0.0686
    1W        W35572  20.646  10.963   0.942  0.2160 -0.0678  0.0350
    1W        W35573  19.982  29.645   1.496  0.0677  0.0443 -0.0198
    1W        W35574  18.772  18.520   9.077  0.1397  0.0984 -0.1640
    1W        W35575  18.327  24.779   6.704  0.1923  0.0441 -0.1231
    1W        W35576   2.811   5.564   3.442 -0.0484 -0.0369  0.0920
    1W        W35577   5.428  23.574   9.201 -0.1017 -0.0261 -0.1017
    1W        W35578  14.182  21.796   8.499  0.0833  0.2143 -0.0174
    1W        W35579  19.094   0.077   1.182 -0.4603 -0.2971  0.0243
    1W        W35580  17.864   7.814   0.492  0.3111  0.1824 -0.1542
    1W        W35581  16.513  12.024   7.691 -0.2931  0.2687 -0.2949
    1W        W35582  18.224  16.644   0.758  0.3299 -0.0277  0.1316
    1W        W35583   9.033  24.908   7.418  0.1640 -0.1633 -0.0840
    1W        W35584  20.682  22.993   7.066 -0.3008 -0.0856  0.0246
    1W        W35585  25.860  27.541   8.639  0.1071  0.1413  0.1275
    1W        W35586  12.469  18.112   1.458 -0.1355 -0.1815  0.2270
    1W        W35587   9.900   3.142   0.741 -0.0236  0.0251  0.0677
    1W        W35588  18.594  20.383   0.251  0.0212 -0.0591 -0.1962
    1W        W35589   7.345   3.185   7.503 -0.1777  0.0604 -0.2064
    1W        W35590  29.370  25.264   0.634  0.0135  0.0087  0.5257
    1W        W35591  13.182  16.382   8.549 -0.1736  0.0468 -0.0859
    1W        W35592   2.740  26.791   2.348 -0.0470  0.0682  0.0745
    1W        W35593  12.112  10.823   8.982  0.4401  0.1683  0.0436
    1W        W35594  20.161   4.396   8.785 -0.0035  0.1334 -0.0134
    1W        W35595   1.140   2.442   3.173 -0.0714 -0.1866 -0.0454
    1W        W35596   5.236  21.802   1.702 -0.1164  0.0417  0.0056
    1W        W35597   2.927  10.119   8.750  0.1346 -0.0619  0.1199
    1W        W35598  27.251  15.880   7.689  0.1374  0.3307  0.2658
    1W        W35599  26.863  13.377   5.835 -0.0903  0.1983 -0.1682
    1W        W35600   7.639  18.883   0.749 -0.0883 -0.1238  0.1686
    1W        W35601   5.590   0.860   3.225  0.0228 -0.0683 -0.1393
    1W        W35602   6.007  16.458   7.139  0.0383  0.0225  0.2365
    1W        W35603  24.671   8.987   8.462 -0.1513 -0.2316 -0.3003
    1W        W35604   7.262   6.491   1.593 -0.0511  0.0187  0.1522
    1W        W35605  28.411   8.438   2.387 -0.2424 -0.3355 -0.1425
    1W        W35606   2.513  20.500   8.678 -0.1220  0.0892  0.0157
    1W        W35607  28.715  18.650   1.716 -0.1521  0.2224  0.1629
    1W        W35608   6.311   8.773   1.150  0.0741  0.0854 -0.0164
    1W        W35609  29.960   4.231   6.564 -0.0386 -0.0511 -0.0276
    1W        W35610  27.491   9.378   1.749  0.2871  0.1035  0.0228
    1W        W35611  18.031  16.822   6.973  0.4269  0.2658  0.0596
    1W        W35612  21.592  27.272   7.926  0.3441 -0.0401  0.3967
    1W        W35613   5.713  23.786   8.590  0.0620  0.1222  0.3273
    1W        W35614  28.823  13.489   7.603 -0.1548 -0.3577 -0.0686
    1W        W35615   6.244   8.578   0.277  0.0922  0.0631  0.1330
    1W        W35616  29.165  19.458   6.245 -0.2069  0.1774 -0.1234
    1W        W35617  14.424  20.815   8.160  0.0884  0.3119  0.1710
    1W        W35618   5.807  25.612   7.215  0.1213  0.0999  0.1082
    1W        W35619  11.492   1.779   2.696  0.0283 -0.0600  0.2965
    1W        W35620   4.477   4.985   2.521 -0.4357  0.3995  0.0919
    1W        W35621  22.277   8.282   9.303 -0.1308 -0.1516 -0.1610
    1W        W35622  14.104   2.791   2.900  0.2681  0.1152  0.1447
    1W        W35623  16.005   3.452   8.796  0.0575 -0.2411 -0.3150
    1W        W35624  17.802   7.398   1.566  0.1239  0.3408 -0.1586
    1W        W35625  16.392  22.173   0.574 -0.0335  0.0149 -0.0316
    1W        W35626   8.636  27.985   3.238 -0.0069 -0.2669 -0.0865
    1W        W35627   0.542  22.329   6.487 -0.1950 -0.1601  0.0467
    1W        W35628   4.722  12.919   1.478 -0.0285 -0.3767  0.0357
    1W        W35629  20.482   3.756   9.254  0.0725  0.2537  0.1252
    1W        W35630  11.231  29.349   1.569  0.1201  0.1559  0.3804
    1W        W35631   2.070  13.027   0.300 -0.0099  0.2784 -0.1801
    1W        W35632  18.639   2.280   6.840  0.2330  0.4491 -0.0528
    1W        W35633  17.136  16.746   8.212  0.1406 -0.4243  0.1026
    1W        W35634   3.853   6.250   0.584  0.1297  0.0419  0.0435
    1W        W35635   3.735   0.415   9.008  0.3882  0.0104 -0.2252
    1W        W35636  19.987  22.252   1.965 -0.0629 -0.1791 -0.0591
    1W        W35637  24.706  29.029   3.612  0.0148 -0.3498 -0.0520
    1W        W35638  19.879  12.718   1.446 -0.0030 -0.1470  0.0610
    1W        W35639  27.557  10.305   0.923 -0.0826  0.1439  0.2245
    1W        W35640  24.968  11.052   2.270  0.4312  0.0795  0.2727
    1W        W35641  26.983  29.216   1.040 -0.3392  0.0328 -0.1412
    1W        W35642   1.856  14.801   9.156 -0.2239  0.0753  0.0973
    1W        W35643  21.484  14.897   1.473  0.0649  0.0768  0.0256
    1W        W35644  20.072  21.462   7.286  0.0947  0.2994  0.0690
    1W        W35645   8.510   5.812   0.349 -0.0236  0.0150  0.0131
    1W        W35646  20.610  22.796   8.823  0.0226 -0.1033  0.1756
    1W        W35647   8.175   2.285   6.122 -0.1658 -0.0610 -0.0979
    1W        W35648   8.125  15.254   2.156  0.0438  0.1092 -0.0894
    1W        W35649   9.631  10.306   7.700 -0.1004 -0.0272  0.1051
    1W        W35650   6.998  30.087   8.323  0.1681  0.0331  0.1491
    1W        W35651  11.609  12.287   1.625 -0.1389 -0.1773  0.1064
    1W        W35652  13.771   4.394   3.842 -0.0369 -0.2834  0.4159
    1W        W35653  19.879  28.883   6.942  0.0740 -0.0450 -0.0696
    1W        W35654  21.841   2.463   8.632 -0.1208 -0.0954  0.1107
    1W        W35655  23.034  18.906   8.541  0.0493 -0.1944  0.0646
    1W        W35656   2.791  18.973   7.931  0.2245 -0.0309  0.0117
    1W        W35657  24.462  21.944   8.112 -0.2091  0.0183  0.1284
    1W        W35658  10.703  17.960   1.839  0.1942 -0.2090 -0.2156
    1W        W35659   0.185  29.128   2.943 -0.0638  0.2645  0.0248
    1W        W35660   9.480  30.022   0.680  0.0150  0.0853 -0.2952
    1W        W35661   1.822  14.853   0.286 -0.3736 -0.0340  0.1744
    1W        W35662   7.809  29.168   1.623 -0.1050  0.0350 -0.0178
    1W        W35663  24.099  28.959   0.896 -0.1184  0.3025 -0.0118
    1W        W35664   1.108  26.412   8.305  0.3481 -0.1715  0.0290
    1W        W35665  26.121   7.201   6.499 -0.0444  0.1525  0.2785
    1W        W35666   6.388   9.474   8.197 -0.1741  0.0591  0.2131
    1W        W35667   0.783  11.577   2.519 -0.4064  0.1152 -0.1292
    1W        W35668  28.796  16.668   1.679 -0.4180  0.1017 -0.1330
    1W        W35669   4.557   6.948   9.096 -0.0300 -0.3465  0.0667
    1W        W35670  27.650  23.788   1.234 -0.0957  0.1474 -0.4251
    1W        W35671  21.571  11.799   8.938 -0.3528 -0.0574 -0.1754
    1W        W35672  22.936   5.476   0.491 -0.2629 -0.1083 -0.1435
    1W        W35673  23.373  13.735   7.246 -0.2645 -0.2083 -0.0528
    1W        W35674   8.476  20.344   0.423 -0.1717  0.3499  0.0752
    1W        W35675  15.309   5.229   9.374  0.0877 -0.1153 -0.2437
    1W        W35676  12.976  11.613   1.495  0.2256 -0.2260 -0.2192
    1W        W35677  21.034  18.001   1.414 -0.1253 -0.2696 -0.0446
    1W        W35678   3.752   8.761   2.807 -0.2002  0.1697 -0.2918
    1W        W35679   6.113  17.786   5.858 -0.1188 -0.1832  0.3169
    1W        W35680  22.742  28.072   8.500 -0.1441  0.0454  0.1234
    1W        W35681  14.490  29.782   3.697  0.2626 -0.3526  0.0735
    1W        W35682  28.498  16.453   5.824 -0.1948  0.1727 -0.2423
    1W        W35683  24.930   2.389   0.037  0.1030  0.2035  0.1406
    1W        W35684  10.851  18.738   7.714 -0.1082 -0.0174  0.2448
    1W        W35685  17.750  20.540   6.772 -0.0630 -0.1182 -0.0236
    1W        W35686  19.990   1.013   7.526 -0.0280 -0.0805 -0.0163
    1W        W35687  18.896   3.381   0.125  0.0754  0.0416 -0.1014
    1W        W35688  13.577  23.640   0.122 -0.0863  0.1558 -0.2380
    1W        W35689  14.339  12.676   8.547 -0.2373  0.1030  0.1407
    1W        W35690   1.706  21.237   5.859 -0.1203 -0.1181  0.1115
    1W        W35691  23.370  29.892   8.876  0.0751 -0.0986  0.0618
    1W        W35692  11.408  24.895   2.617 -0.2694 -0.1902 -0.3205
    1W        W35693  19.939   8.213   0.081 -0.1042 -0.1286  0.2527
    1W        W35694   1.076  17.389   6.379  0.0192 -0.0902  0.1222
    1W        W35695  11.141   0.310   2.149 -0.2393 -0.0952  0.0645
    1W        W35696   2.644   8.257   2.277 -0.3121 -0.1449  0.1717
    1W        W35697   4.062   1.635   1.092  0.1214 -0.1132  0.0247
    1W        W35698   1.793   5.388   7.421  0.1866  0.0834  0.3192
    1W        W35699   0.351   7.460   6.787  0.0611 -0.0892  0.0547
    1W        W35700   7.769  18.529   7.357  0.0137  0.1103 -0.1139
    1W        W35701   3.952  24.759   7.244  0.1370  0.2019  0.3128
    1W        W35702  18.496  25.707   1.328  0.2565  0.1619  0.1677
    1W        W35703  20.994  14.455   7.138 -0.1127 -0.3145 -0.1301
    1W        W35704   8.829  24.846   6.954  0.0114  0.2301 -0.1407
    1W        W35705  25.655  29.525   2.631  0.3175 -0.1254 -0.1689
    1W        W35706  12.341   5.892   8.849  0.1163  0.2465 -0.2602
    1W        W35707   6.651  26.849   8.442  0.1858  0.2222  0.1494
    1W        W35708  10.515  29.998   8.446  0.3145  0.1916 -0.0118
    1W        W35709   1.134  15.082   8.501 -0.0259  0.1968  0.0372
    1W        W35710   6.307   4.086   8.476  0.3441  0.2551  0.1335
    1W        W35711   6.915  28.311   6.656  0.1754  0.3860 -0.2423
    1W        W35712   6.759   6.838   3.010 -0.1842  0.3684 -0.1220
    1W        W35713   9.030  14.069   0.595 -0.0044 -0.1581  0.0273
    1W        W35714  11.262   9.789   0.591  0.2074  0.2818 -0.1404
    1W        W35715  11.345  29.741   3.569  0.0098  0.2061 -0.0432
    1W        W35716  22.091  14.369   0.953 -0.0196 -0.1486 -0.1181
    1W        W35717   4.311  24.418   8.628 -0.2795  0.0710  0.0827
    1W        W35718  12.223  27.554   2.561  0.0046 -0.1558 -0.0133
    1W        W35719  26.426  24.576   8.624  0.0761 -0.0953  0.1294
    1W        W35720   7.618   1.261   1.768 -0.1294 -0.4319 -0.0667
    1W        W35721  16.016   3.483   1.816 -0.1690  0.1143 -0.1527
    1W        W35722  20.001  18.504   0.374  0.1877 -0.0399 -0.3248
    1W        W35723   8.748   8.050   7.950 -0.1475  0.2495  0.1331
    1W        W35724  17.403  11.568   7.892  0.0074 -0.1261 -0.0403
    1W        W35725  25.642  19.632   8.362  0.0278  0.3882  0.0341
    1W        W35726  11.929   7.460   9.333 -0.0581  0.0222  0.3150
    1W        W35727  12.617   4.391   7.553 -0.1446  0.0105  0.4090
    1W        W35728   7.781  21.341   0.185  0.2147  0.2418 -0.1162
    1W        W35729  27.250  24.413   6.985  0.1763 -0.2593 -0.2698
    1W        W35730   6.564  17.009   8.138  0.0195  0.0913 -0.3509
    1W        W35731  12.727  21.896   2.010  0.2906  0.3366 -0.1012
    1W        W35732   0.001   8.244   9.091  0.1824  0.0569 -0.0605
    1W        W35733   6.796  23.691   1.501  0.1627 -0.2727 -0.1437
    1W        W35734  13.389   2.867   8.790  0.1709 -0.2868  0.0455
    1W        W35735  11.983  19.665   7.665  0.1709  0.2664  0.0506
    1W        W35736   3.143  26.667   7.636  0.3900 -0.1070  0.4919
    1W        W35737   5.760  28.930   2.580 -0.2319  0.0524 -0.0152
    1W        W35738  26.311   7.526   8.231  0.4588 -0.4239  0.2269
    1W        W35739   7.292  10.605   2.681 -0.1592  0.1481 -0.0361
    1W        W35740   4.726   6.927   2.762 -0.0640  0.3187 -0.3264
    1W        W35741  13.158  28.141   2.927  0.1812  0.1758  0.2519
    1W        W35742  22.109  11.492   1.696  0.2155 -0.1482 -0.0643
    1W        W35743  26.933   8.024   0.778 -0.2227 -0.0226 -0.0579
    1W        W35744  11.226  27.346   6.019 -0.1713  0.4128  0.1245
    1W        W35745  24.711  25.751   2.983  0.2157 -0.2931  0.1437
    1W        W35746   5.477  22.580   6.631  0.1666 -0.0873  0.0972
    1W        W35747  14.017  26.095   8.148 -0.1343 -0.1341  0.0219
    1W        W35748   4.332   2.778   1.631  0.3725 -0.0439  0.1112
    1W        W35749  18.341  23.485   2.800 -0.1086  0.0097 -0.0354
    1W        W35750   6.189  17.883   6.790 -0.0932  0.2683 -0.1465
    1W        W35751  19.090  14.003   8.255  0.2217  0.1414  0.1816
    1W        W35752   8.904   9.952   2.135  0.2294  0.0552 -0.2936
    1W        W35753   4.536   3.600   2.034 -0.0128 -0.1116 -0.0363
    1W        W35754  25.768  23.540   3.113  0.2557 -0.2692 -0.3471
    1W        W35755   3.860  26.947   1.344 -0.0272 -0.1715 -0.0791
    1W        W35756  29.192  24.536   2.512 -0.1257 -0.0390 -0.1014
    1W        W35757  18.058  18.421   8.566  0.1198  0.0891  0.0832
    1W        W35758  15.385  28.997   1.938 -0.1505 -0.4151 -0.3179
    1W        W35759  27.369   3.342   7.226  0.3628  0.1187 -0.0217
    1W        W35760  30.011   2.296   8.622 -0.1049 -0.1744 -0.1586
    1W        W35761   2.986  28.143   9.356  0.0955 -0.1281 -0.0006
    1W        W35762  23.376  29.978   7.231  0.0888  0.0123  0.3121
    1W        W35763   5.956  29.795   3.752 -0.0170  0.0378  0.0076
    1W        W35764  18.316  27.221   0.051  0.2322  0.2510 -0.1395
    1W        W35765  28.981   8.812   9.372 -0.0509 -0.1371 -0.2413
    1W        W35766   8.963   9.951   0.508 -0.2013  0.4148  0.0018
    1W        W35767   1.266  24.371   8.412  0.1464  0.1361 -0.0112
    1W        W35768  15.241  18.451   1.691  0.2828  0.3186  0.0077
    1W        W35769  19.611  14.149   0.580  0.1309 -0.1262 -0.1463
    1W        W35770  12.990  12.744   2.723 -0.1265  0.1030  0.0337
    1W        W35771  13.315   6.781   8.135 -0.2192  0.0152 -0.2343
    1W        W35772   1.133  12.736   7.218 -0.0828  0.0412 -0.1049
    1W        W35773  10.540  28.693   1.838  0.0016 -0.2628 -0.1618
    1W        W35774   5.826   4.163   8.774 -0.1558  0.5220  0.0756
    1W        W35775   7.116  27.366   1.585 -0.3285 -0.0186 -0.0638
    1W        W35776  27.452  21.904   6.389  0.2545  0.1745  0.0015
    1W        W35777   4.266   1.411   0.620 -0.2208 -0.1567 -0.0248
    1W        W35778   1.031   1.113   3.035  0.0029  0.1007  0.0326
    1W        W35779   7.959   4.828   0.651 -0.0137 -0.0671  0.0748
    1W        W35780   2.320  11.017   2.685 -0.1246  0.0289 -0.1406
    1W        W35781  22.564  15.580   0.136  0.1299 -0.1427  0.0070
    1W        W35782  25.717   8.948   1.147  0.1841 -0.0272 -0.0654
    1W        W35783  14.126  14.330   8.772 -0.0831 -0.1736  0.2588
    1W        W35784   9.331  25.462   8.911 -0.0111 -0.2963  0.0500
    1W        W35785  25.302   6.311   8.748 -0.0376 -0.1685 -0.1875
    1W        W35786  25.909   8.464   2.006  0.0147  0.2197  0.0685
    1W        W35787  28.764  20.427   2.220  0.1598 -0.4072 -0.1297
    1W        W35788  21.506   2.672   1.945 -0.1255  0.2367  0.0652
    1W        W35789   5.912   5.663   7.168 -0.0286 -0.3830 -0.0900
    1W        W35790   3.753   7.240   0.546 -0.3336  0.1769 -0.1686
    1W        W35791   6.874   0.073   1.533  0.2951 -0.0526 -0.2115
    1W        W35792   6.718  18.787   6.631  0.1169 -0.1639 -0.0072
    1W        W35793  15.368  26.465   8.251 -0.2672  0.0073  0.1305
    1W        W35794   9.304  27.823   2.458 -0.2426 -0.0704 -0.0616
    1W        W35795   2.405   2.764   0.083  0.1219  0.1735  0.0403
    1W        W35796  21.058  11.724   0.953  0.1528 -0.0206  0.1767
    1W        W35797  13.758  12.639   7.896 -0.2006  0.1222 -0.0471
    1W        W35798  20.712  11.046   0.101 -0.2431 -0.0986  0.1930
    1W        W35799   0.250  24.283   1.547  0.2448 -0.2180 -0.1722
    1W        W35800  28.327  23.025   8.229 -0.0058  0.0944 -0.1636
    1W        W35801  21.402   0.101   8.029 -0.2322 -0.0893 -0.2420
    1W        W35802  23.202   1.589   2.573  0.3177  0.1618 -0.0370
    1W        W35803  10.182   5.841   2.578  0.2435  0.2858 -0.0676
    1W        W35804   9.014   9.931   3.513 -0.0156 -0.0911  0.0494
    1W        W35805  12.008   1.931   2.506  0.0533 -0.0072 -0.0139
    1W        W35806   9.877  19.516   8.240  0.1023  0.1126 -0.0778
    1W        W35807  18.954  25.348   9.064 -0.0064  0.0878 -0.2047
    1W        W35808   2.016   0.111   7.580  0.0841 -0.0080  0.0527
    1W        W35809  21.115  12.870   7.277  0.2561 -0.0853 -0.0165
    1W        W35810   1.165  14.575   6.367 -0.1244 -0.1990  0.2816
    1W        W35811  22.841  20.897   0.612 -0.1152 -0.1263  0.4203
    1W        W35812   5.402   6.920   7.461  0.0492  0.2468  0.0162
    1W        W35813  26.905   3.004   0.882 -0.0909 -0.3237 -0.0265
    1W        W35814   7.959  22.224   9.155  0.0822 -0.1115  0.1951
    1W        W35815   1.732   9.697   8.475 -0.0833  0.2639  0.1559
    1W        W35816   0.750  23.749   7.329  0.0406  0.1637 -0.1554
    1W        W35817   5.632  20.674   1.465  0.0034 -0.0925 -0.2868
    1W        W35818   3.350  12.444   2.036 -0.0778  0.3452 -0.0188
    1W        W35819   8.290  17.965   7.975  0.0414  0.3815  0.0938
    1W        W35820  26.194  22.338   2.135  0.0170 -0.1951  0.5311
    1W        W35821  22.170   2.706   7.712 -0.0761 -0.0220  0.0647
    1W        W35822  11.347  29.022   7.798  0.0961 -0.0531  0.2517
    1W        W35823   5.678  16.968   2.246 -0.0067  0.0506 -0.2982
    1W        W35824  18.102  29.379   0.755 -0.1172 -0.4563  0.0609
    1W        W35825   1.524  25.538   6.732  0.0921 -0.0107  0.4662
    1W        W35826  14.062   2.851   0.067  0.0493  0.0479 -0.0964
    1W        W35827  11.153  13.306   1.467  0.1220 -0.2749 -0.1096
    1W        W35828  19.033  14.702   7.172 -0.3453 -0.0127  0.0211
    1W        W35829  23.935  17.470   8.120  0.3572 -0.0173  0.1944
    1W        W35830   6.512  15.808   7.040 -0.3164 -0.5351 -0.1400
    1W        W35831  13.000  10.228   2.778  0.2743 -0.1020  0.2920
    1W        W35832   8.093  14.031   6.415  0.2452  0.3746 -0.1331
    1W        W35833   5.291   1.986   2.805  0.0076  0.0810 -0.1041
    1W        W35834   2.040  11.577   7.256  0.2510 -0.0181  0.0853
    1W        W35835  24.551   0.300   2.189  0.1128 -0.3730  0.1228
    1W        W35836  17.856  11.886   1.181  0.0529 -0.2038  0.0027
    1W        W35837  21.759  29.837   0.120  0.0484  0.1879 -0.3201
    1W        W35838  11.021   7.351   1.923 -0.0635  0.0200  0.2361
    1W        W35839  27.678  18.871   7.446 -0.1598 -0.0015 -0.3843
    1W        W35840  27.901  29.502   1.433  0.1911 -0.1079  0.0966
    1W        W35841   1.521  21.657   1.828  0.0261  0.3561 -0.1743
    1W        W35842   2.553  14.668   7.256  0.1292 -0.2414  0.1147
    1W        W35843  21.797  15.657   8.495 -0.1024  0.1057  0.1149
    1W        W35844   5.805  18.870   1.084 -0.0355  0.2497 -0.1328
    1W        W35845  20.376  14.084   8.357 -0.0874  0.0450 -0.0413
    1W        W35846   5.308   7.650   7.692 -0.2337  0.0447 -0.0647
    1W        W35847   7.831  19.757   7.504 -0.0316  0.0651 -0.0891
    1W        W35848   0.375   3.461   1.819 -0.2086  0.2244 -0.2975
    1W        W35849  13.391   7.709   0.595 -0.0559  0.1432 -0.1022
    1W        W35850  20.799  10.283   2.099 -0.2964 -0.0835  0.0923
    1W        W35851   9.535  15.302   8.859  0.1118  0.1582  0.1150
    1W        W35852  29.136   4.107   9.221 -0.0710  0.2708  0.0504
    1W        W35853  13.350  10.142   1.929 -0.0227  0.5993 -0.0647
    1W        W35854   5.671  18.238   8.012 -0.2139  0.1729 -0.0398
    1W        W35855  19.441  28.445   1.818  0.2653  0.1146 -0.1398
    1W        W35856  23.575  10.817   5.885  0.0981 -0.1607  0.2338
    1W        W35857  29.989   6.120   7.233  0.0663 -0.1402 -0.0417
    1W        W35858  27.051   3.056   0.331  0.1595  0.3161 -0.3835
    1W        W35859   3.470  14.420   7.870 -0.2812  0.1394 -0.3094
    1W        W35860  20.042  10.152   0.830  0.0798  0.1743  0.2682
    1W        W35861   4.271   2.116   6.841  0.2781 -0.1180 -0.2061
    1W        W35862  11.138  27.929   3.034 -0.1645  0.0547  0.0153
    1W        W35863  18.661   0.678   2.441  0.1633  0.1344 -0.2188
    1W        W35864  19.103  21.167   1.128 -0.1154  0.1262  0.0553
    1W        W35865  23.176  12.922   0.811  0.0892 -0.2098  0.0792
    1W        W35866  27.303  17.061   1.759  0.1029  0.0346 -0.0927
    1W        W35867  26.312  22.883   7.827  0.5549  0.1135 -0.0855
    1W        W35868  12.700   0.346   0.913  0.0821 -0.0519 -0.0526
    1W        W35869  12.736  19.071   1.542 -0.1615  0.0716  0.0007
    1W        W35870  23.073   1.685   0.979 -0.2195  0.2486 -0.2164
    1W        W35871   5.600  14.866   8.444 -0.1678  0.1974  0.0009
    1W        W35872  19.851  17.877   6.492 -0.2024  0.3140 -0.1639
    1W        W35873   5.965  26.978   8.302  0.1319 -0.0721  0.1260
    1W        W35874  22.747  28.340   7.501 -0.0236 -0.1497 -0.1549
    1W        W35875  26.079  27.771   0.605 -0.6385  0.3734  0.0098
    1W        W35876  29.473   9.788   0.903  0.2089 -0.2460 -0.0780
    1W        W35877   6.189   7.695   7.655 -0.1418 -0.1711  0.1893
    1W        W35878  23.703   6.892   2.173  0.0964  0.2087 -0.0976
    1W        W35879  28.955  13.123   6.420  0.0554  0.0788 -0.0060
    1W        W35880   6.944  11.517   7.193 -0.1358 -0.1833  0.0925
    1W        W35881  14.860   2.315   1.581  0.4797  0.1211 -0.1213
    1W        W35882  20.117  20.163   8.241  0.1073  0.0550  0.0426
    1W        W35883  17.257   0.132   6.800  0.1015  0.0513 -0.0322
    1W        W35884  20.479  14.128   6.436  0.2336 -0.1633 -0.0057
    1W        W35885   7.657  20.811   8.593 -0.1685 -0.2087 -0.1716
    1W        W35886  12.146   7.399   8.903 -0.1605  0.0602 -0.0650
    1W        W35887  12.303   3.607   8.179 -0.1312  0.0597  0.2496
    1W        W35888  25.875  16.523   5.721  0.0254 -0.0864  0.0431
    1W        W35889  18.144   6.459   9.357  0.0741  0.0138 -0.0653
    1W        W35890  18.308  29.740   7.664 -0.1070 -0.1925  0.2934
    1W        W35891  11.939  11.574   1.011 -0.0933 -0.1036  0.1434
    1W        W35892   9.621   5.705   8.178  0.0062 -0.2286 -0.1040
    1W        W35893  23.016  21.424   0.870  0.0781 -0.1451 -0.3730
    1W        W35894   2.378  29.900   2.228 -0.2223  0.0212 -0.3895
    1W        W35895   4.227  18.204   0.149  0.1193  0.1327 -0.1012
    1W        W35896   6.895  16.235   1.694  0.1594 -0.0815 -0.0967
    1W        W35897   3.159  12.636   6.511  0.0127  0.0652  0.2013
    1W        W35898  21.290  15.655   0.762  0.2547  0.3693  0.1014
    1W        W35899  15.540   7.430   1.322 -0.1615 -0.1934 -0.0208
    1W        W35900  25.600  10.748   7.615 -0.0639 -0.0622 -0.0407
    1W        W35901  29.154  14.989   8.185  0.0319  0.3437  0.0694
    1W        W35902  29.011  17.450   7.009 -0.0338  0.2206  0.0868
    1W        W35903  21.722   0.542   2.843  0.3196  0.3020 -0.1125
    1W        W35904  29.989  10.624   8.554 -0.2181  0.1952  0.1520
    1W        W35905  15.179  12.157   8.117  0.0004  0.0201 -0.1399
    1W        W35906  13.067   7.865   2.831 -0.3420  0.1659 -0.3629
    1W        W35907   1.819  29.132   1.938 -0.0419 -0.2975  0.3176
    1W        W35908  22.528  11.632   0.128 -0.0254 -0.0668 -0.2239
    1W        W35909   7.961  14.977   8.670  0.0974  0.0197 -0.0235
    1W        W35910  14.776  11.084   7.340  0.2850 -0.0134 -0.0966
    1W        W35911  29.562  15.647   0.607 -0.1527  0.3087  0.0570
    1W        W35912  19.992   6.884   3.375  0.0120  0.2278 -0.2532
    1W        W35913   5.920  19.285   7.341 -0.2373 -0.2622 -0.0377
    1W        W35914  10.273  18.443   8.420  0.3278  0.1720 -0.1804
    1W        W35915  24.909   8.829   1.315 -0.0772  0.4377  0.1434
    1W        W35916  23.027  22.056   1.703  0.0367  0.0596  0.1064
    1W        W35917   6.872  19.797   7.680 -0.3180 -0.3230  0.0568
    1W        W35918   9.312  11.349   3.040  0.2331 -0.3143  0.1518
    1W        W35919   7.648  27.452   0.704 -0.2629  0.3189  0.0316
    1W        W35920  22.129  25.457   7.437 -0.3761 -0.1509  0.3505
    1W        W35921  22.139  20.710   2.380 -0.1380 -0.0438  0.0272
    1W        W35922   1.883   1.742   1.665 -0.0350  0.1153 -0.1471
    1W        W35923   3.739   6.029   3.098  0.3502 -0.3661  0.1807
    1W        W35924  19.699  28.929   7.463  0.0407  0.0149  0.0717
    1W        W35925  26.302   1.639   7.637  0.2409  0.0009 -0.0676
    1W        W35926  26.096  29.597   7.954  0.2619 -0.1130 -0.1266
    1W        W35927  15.302  17.232   0.703 -0.1924 -0.2332  0.0047
    1W        W35928   8.481   6.522   1.248 -0.2865 -0.2702 -0.1807
    1W        W35929   2.474  24.666   6.513 -0.0136  0.3586  0.1850
    1W        W35930  10.959  14.386   2.030  0.0660  0.1720  0.1011
    1W        W35931  26.961  21.864   2.300 -0.1433  0.1169 -0.2086
    1W        W35932  12.031  29.820   0.728 -0.1426  0.2584 -0.2412
    1W        W35933   3.155  27.823   8.900  0.0821 -0.0633  0.2481
    1W        W35934   7.919  14.825   0.200  0.0208  0.2326 -0.1124
    1W        W35935  17.575  16.452   1.299 -0.0291  0.0696  0.0798
    1W        W35936  12.689   5.360   0.614 -0.2199 -0.0958 -0.0332
    1W        W35937  28.019   2.611   1.541  0.0262 -0.1588 -0.0024
    1W        W35938   5.285   3.595   6.934 -0.1943  0.0838 -0.2002
    1W        W35939  11.289   3.637   1.398 -0.1499 -0.0714 -0.2650
    1W        W35940   6.468  11.569   8.964 -0.1523 -0.0319 -0.0099
    1W        W35941  22.363   3.240   1.378 -0.3416 -0.3144 -0.0418
    1W        W35942   9.376  14.412   0.840  0.0976  0.1828 -0.0436
    1W        W35943   0.048  12.587   8.767  0.0243  0.0437  0.1247
    1W        W35944   6.750  26.127   1.347  0.3328  0.1381  0.1781
    1W        W35945   1.620   5.173   1.849 -0.1076 -0.2142  0.2079
    1W        W35946  29.398  29.879   8.203  0.0565  0.2263  0.1089
    1W        W35947  26.386  10.791   2.388 -0.0334  0.2167  0.0485
    1W        W35948  16.079  21.409   2.194 -0.0100 -0.0277 -0.0857
    1W        W35949   5.010  23.078   0.498  0.1337  0.0197 -0.1584
    1W        W35950   2.523  14.203   7.714  0.0527  0.0856 -0.1141
    1W        W35951  17.823  12.161   1.995  0.0224  0.0991 -0.1186
    1W        W35952  29.495   5.358   6.418  0.0935  0.1849 -0.0953
    1W        W35953  23.179   2.240   2.570  0.0847 -0.0618  0.1974
    1W        W35954  26.892  19.613   9.279 -0.3023  0.2108  0.3851
    1W        W35955   5.100   1.114   8.640  0.1877  0.4350 -0.0305
    1W        W35956   7.992  29.231   6.613 -0.1208 -0.1310 -0.1089
    1W        W35957   9.311  25.791   7.899 -0.0905 -0.0005  0.1219
    1W        W35958  11.294  23.756   1.933 -0.0690 -0.0978 -0.1529
    1W        W35959  27.994  21.084   6.804  0.0416  0.1301  0.1005
    1W        W35960  20.628  25.143   7.779 -0.0818  0.1344  0.1383
    1W        W35961  29.128  13.292   5.910 -0.3223  0.0748  0.1290
    1W        W35962   6.287  12.665   0.731  0.0280  0.2546  0.1673
    1W        W35963  25.686  18.049   8.920  0.0882  0.3813  0.0584
    1W        W35964   2.068  23.160   5.793  0.0740 -0.0543 -0.1597
    1W        W35965   6.800  14.270   7.305  0.3595 -0.4885 -0.0952
    1W        W35966   1.630   2.234   2.648 -0.0057 -0.1413 -0.0717
    1W        W35967  10.711   3.806   7.877 -0.1081 -0.5008  0.1214
    1W        W35968  24.619  11.110   7.643 -0.0715 -0.0603  0.1548
    1W        W35969   7.692   4.067   1.611  0.2791 -0.0670  0.1638
    1W        W35970  25.044  30.124   7.335 -0.1152 -0.0749  0.3743
    1W        W35971  29.052   3.178   0.346 -0.3517 -0.2318 -0.0966
    1W        W35972  20.296  27.084   7.332  0.3552 -0.2550 -0.0968
    1W        W35973   5.910   2.665   8.897 -0.1128  0.0019  0.0951
    1W        W35974   9.875  22.968   1.294  0.1503  0.2006 -0.0022
    1W        W35975  29.709  21.534   7.272 -0.1436  0.0197  0.2307
    1W        W35976  24.992   1.861   0.171 -0.0616 -0.2199 -0.2080
    1W        W35977   5.649  18.606   0.620  0.2900  0.0874 -0.0223
    1W        W35978  28.115  13.398   1.239  0.0214 -0.0737  0.1076
    1W        W35979  27.885  29.326   2.294  0.0023 -0.1302 -0.1441
    1W        W35980  18.637   1.763   6.979  0.0468  0.2735  0.1375
    1W        W35981   9.338  17.722   7.914 -0.2746  0.1734 -0.0794
    1W        W35982  15.603   0.865   8.298  0.1155 -0.0167  0.0299
    1W        W35983  16.182   7.784   7.934  0.0626  0.0804 -0.0682
    1W        W35984  18.970  20.908   6.838  0.1356 -0.1988  0.2236
    1W        W35985   1.833   1.141   2.414 -0.0480  0.1121 -0.0122
    1W        W35986  14.779  19.946   1.162  0.0797  0.0373  0.0888
    1W        W35987  16.965  22.582   1.073  0.1649  0.0114 -0.2657
    1W        W35988  12.958  12.764   8.721  0.1105  0.0596 -0.1208
    1W        W35989  24.317  22.155   9.111  0.0721 -0.3806  0.1568
    1W        W35990  10.014   5.460   2.230  0.1124 -0.0778 -0.4374
    1W        W35991  25.691   2.724   1.985 -0.1607  0.0965  0.1168
    1W        W35992  17.475   5.643   7.085 -0.0966  0.1507 -0.2027
    1W        W35993  17.722  10.515   1.485 -0.0792  0.4006  0.1261
    1W        W35994  24.095  27.246   1.486 -0.2210  0.0360  0.0272
    1W        W35995  26.107  24.066   8.840 -0.0739 -0.3290  0.0334
    1W        W35996  26.757  26.606   9.153  0.0662  0.1496  0.1368
    1W        W35997   1.619  26.733   7.388  0.3030 -0.2456 -0.3705
    1W        W35998  27.726   4.716   6.501 -0.0818  0.0194 -0.1541
    1W        W35999   0.905   9.347   8.399 -0.0184 -0.2873 -0.0925
    1W        W36000   0.621  16.910   6.395  0.2207 -0.0198 -0.2479
    1W        W36001  13.262  27.880   8.134 -0.2100 -0.2498  0.0292
    1W        W36002  24.039   6.881   7.952  0.0813  0.2454  0.4619
    1W        W36003   9.076  16.092   2.311  0.3728 -0.2355  0.2184
    1W        W36004  19.898  23.298   0.716 -0.3605  0.0441  0.3868
    1W        W36005  23.219  23.898   7.971 -0.2254  0.2521  0.2368
    1W        W36006  20.935   3.984   2.636  0.2921 -0.0241  0.0891
    1W        W36007  17.055  20.846   8.769  0.0332 -0.0905 -0.0279
    1W        W36008  26.820  15.640   8.940 -0.1228 -0.0425  0.0665
    1W        W36009  15.433  16.320   7.935  0.0837  0.2781 -0.1740
    1W        W36010  19.123  26.523   7.781 -0.3171 -0.0665 -0.1042
    1W        W36011  19.209   6.098   1.776 -0.2355 -0.1187  0.0260
    1W        W36012   9.678  19.519   7.093  0.1608  0.0831  0.0758
    1W        W36013  28.705   1.819   2.191 -0.2005 -0.2114  0.0306
    1W        W36014  29.568   7.436   9.000  0.1751  0.1243 -0.3927
    1W        W36015   9.353   7.763   2.761  0.1850 -0.2016  0.1663
    1W        W36016   2.984   7.358   7.800  0.2483  0.1272  0.3463
    1W        W36017  22.773  15.847   9.175  0.0959  0.0795 -0.2057
    1W        W36018  25.810  13.194   0.442 -0.4158  0.4026 -0.0496
    1W        W36019   9.422  22.139   6.002  0.0998 -0.1689  0.1363
    1W        W36020   5.429  15.703   7.044  0.2657  0.3493 -0.1604
    1W        W36021   3.930   5.603   2.340 -0.2002 -0.4529  0.1802
    1W        W36022  16.700  21.503   1.568 -0.0535  0.0337 -0.2957
    1W        W36023   9.404  22.165   6.825 -0.2085 -0.1189  0.2149
    1W        W36024  19.972  14.129   2.483 -0.0943  0.1012  0.0421
    1W        W36025  22.050  28.931   8.212 -0.0131  0.2285  0.1642
    1W        W36026   0.596  18.401   5.957  0.0559 -0.1464 -0.2215
    1W        W36027  15.648  27.509   6.941 -0.2369  0.1745 -0.3719
    1W        W36028   3.176  10.689   7.109 -0.0693 -0.2220  0.4711
    1W        W36029   1.770   2.273   0.926  0.1193  0.0861  0.1818
    1W        W36030   5.349  20.433   1.053 -0.1024 -0.0085  0.1538
    1W        W36031  22.391  26.854   8.190 -0.0488 -0.3022 -0.0650
    1W        W36032  21.792  11.199   0.453  0.3634 -0.3801 -0.0760
    1W        W36033   9.927  11.813   1.808 -0.1068  0.2852  0.1424
    1W        W36034   5.385  21.754   6.589  0.0259  0.0669  0.4900
    1W        W36035   7.285   2.725   7.837  0.1552 -0.3193  0.2438
    1W        W36036   9.814  11.354   9.156  0.1313  0.3272  0.1598
    1W        W36037   2.434  13.800   1.205 -0.3139 -0.0065  0.2226
    1W        W36038  29.913   5.195   6.594 -0.0030  0.0182  0.1885
    1W        W36039  12.869   9.383   9.122  0.0459 -0.0174 -0.0810
    1W        W36040  26.154  28.538   1.358  0.1946 -0.2702  0.0639
    1W        W36041  27.930   2.533   7.061  0.1050  0.2003 -0.1289
    1W        W36042  10.034   9.517   1.464 -0.1902  0.1213  0.4216
    1W        W36043  28.803  25.596   8.151  0.0686  0.1054 -0.0974
    1W        W36044  11.518   5.853   9.164 -0.0509  0.3360  0.1427
    1W        W36045  25.610  22.857   1.977  0.0876 -0.1683  0.2589
    1W        W36046  24.178   1.813   3.214  0.0336  0.1418  0.4009
    1W        W36047  10.679  26.956   0.503 -0.2930 -0.0313 -0.0353
    1W        W36048  21.510  27.676   2.536 -0.3071  0.0786 -0.5312
    1W        W36049  26.030  12.822   7.263  0.1079 -0.1150  0.0877
    1W        W36050   8.494  15.647   8.012 -0.1674 -0.0205  0.1023
    1W        W36051  23.866  25.122   2.180 -0.0399  0.0781  0.0849
    1W        W36052   2.782  18.951   8.427 -0.0248  0.1138 -0.3026
    1W        W36053  24.406   7.090   0.800  0.3928 -0.0798 -0.0670
    1W        W36054  21.904  25.844   3.605 -0.1032 -0.2082 -0.0198
    1W        W36055  17.185   9.885   0.395 -0.2909  0.0981  0.1587
    1W        W36056   1.029  21.957   6.509 -0.1855 -0.0893  0.4151
    1W        W36057   6.844   5.401   2.446  0.0809 -0.0070  0.1192
    1W        W36058   6.040  23.763   7.287  0.1308  0.1156 -0.3196
    1W        W36059  10.666  11.261   8.231 -0.3947  0.0956 -0.0384
    1W        W36060  12.208  16.837   6.756 -0.0605 -0.1343  0.1959
    1W        W36061  29.703   3.358   8.644 -0.1523  0.2810 -0.3027
    1W        W36062  13.934   7.574   8.036 -0.0178  0.4041 -0.1048
    1W        W36063  12.621  11.957   9.304  0.0544  0.2695 -0.0790
    1W        W36064   6.610  16.386   0.833 -0.1839 -0.2090  0.0791
    1W        W36065  16.901   2.948   7.233 -0.0179 -0.2073  0.0522
    1W        W36066  23.659  23.134   8.002  0.1524  0.2543  0.1964
    1W        W36067  27.036   2.747   1.742  0.1211 -0.1448  0.0004
    1W        W36068  19.201  10.066   2.025 -0.2886  0.1729 -0.3956
    1W        W36069   5.239  11.652   6.312  0.1517 -0.1560 -0.0169
    1W        W36070  24.291  23.360   8.698 -0.1558  0.2567 -0.1719
    1W        W36071   8.127  12.360   2.138 -0.0596  0.3267  0.1689
    1W        W36072  19.522  10.016   7.555 -0.2186  0.0862 -0.4183
    1W        W36073  22.697   8.128   0.284 -0.1066  0.0325 -0.2146
    1W        W36074  20.307  22.037   0.331 -0.0455 -0.1339 -0.0611
    1W        W36075  17.863  26.293   1.545  0.2889 -0.3628 -0.0063
    1W        W36076   9.011   8.376   3.814  0.0962 -0.0754 -0.2007
    1W        W36077  24.130  13.748   0.133  0.1966 -0.4007 -0.2195
    1W        W36078  10.079   3.942   2.695 -0.0600 -0.0495 -0.2004
    1W        W36079   1.488  23.274   7.025 -0.2696  0.0442  0.0119
    1W        W36080   8.416  13.461   0.591  0.0812 -0.2129 -0.0556
    1W        W36081   5.185  19.326   8.512  0.2209  0.1782 -0.1627
    1W        W36082  18.970   3.314   8.215  0.0945 -0.0943  0.0357
    1W        W36083   0.984   2.987   0.814 -0.1579  0.0399 -0.2609
    1W        W36084   2.596  20.772   7.794 -0.2317  0.0311  0.2786
    1W        W36085   3.299  10.378   1.187 -0.1271  0.0302  0.1782
    1W        W36086   9.705   2.722   8.026  0.1989 -0.0557 -0.0926
    1W        W36087  12.283  27.131   1.610  0.1870  0.2507 -0.2042
    1W        W36088   1.301  16.017   6.572  0.0882  0.0219  0.0139
    1W        W36089   9.496  13.271   7.911 -0.1276  0.0121 -0.3303
    1W        W36090  29.028   4.458   8.765 -0.0610 -0.2883 -0.1440
    1W        W36091  29.447  25.386   5.763 -0.1815 -0.4028 -0.0374
    1W        W36092  15.284   2.549   3.993 -0.1273 -0.1001 -0.2470
    1W        W36093   1.287  17.610   8.271  0.1614  0.0307 -0.0391
    1W        W36094   8.777  19.358   6.799 -0.0075  0.1138 -0.2227
    1W        W36095  11.793  21.566   6.921 -0.1628  0.1718  0.2074
    1W        W36096  19.707   5.324   1.851  0.1047  0.1473 -0.1108
    1W        W36097  19.402  18.939   2.234 -0.1090  0.0154  0.0290
    1W        W36098   7.967  14.735   2.417  0.1679  0.1717  0.0576
    1W        W36099  29.142  20.781   2.059  0.2616 -0.2314 -0.1769
    1W        W36100  17.389  18.466   0.670 -0.0219  0.1288 -0.0283
    1W        W36101   8.613  24.933   0.167  0.3108 -0.0016  0.3220
    1W        W36102  14.936  18.648   2.166  0.0764 -0.2454 -0.2146
    1W        W36103  29.021   2.756   6.151 -0.0374 -0.2416 -0.0014
    1W        W36104  18.378   4.071   0.721  0.0354  0.5678 -0.0837
    1W        W36105  29.126  26.557   6.894  0.0602  0.0838  0.3013
    1W        W36106   1.036  16.838   7.071 -0.0965  0.1096 -0.2932
    1W        W36107  10.400   5.728   0.458  0.0549  0.0483 -0.2779
    1W        W36108  18.127  18.065   7.676  0.1981 -0.1468 -0.0137
    1W        W36109  20.026   5.291   1.459  0.2028 -0.1298  0.1495
    1W        W36110  25.894  12.160   0.380 -0.0854 -0.0516 -0.1179
    1W        W36111  13.202  18.080   9.196 -0.3134  0.1964  0.2246
    1W        W36112   5.536   4.659   9.326 -0.1409 -0.1216  0.3342
    1W        W36113  23.227  26.531   7.959 -0.2196  0.0203 -0.1271
    1W        W36114  18.020  16.241   0.019  0.0675  0.2344  0.0956
    1W        W36115   8.901  19.928   6.239  0.2079  0.1166 -0.1659
    1W        W36116   5.147  10.667   3.301  0.1188  0.1651 -0.2794
    1W        W36117  16.473   2.168   7.390  0.5772  0.2379 -0.0719
    1W        W36118   7.028  16.310   1.142  0.2129  0.0555  0.3500
    1W        W36119   2.039   5.656   0.162 -0.3160 -0.4059 -0.0059
    1W        W36120  28.575  22.377   7.091  0.1008  0.0706 -0.1401
    1W        W36121  10.889   4.506   2.181  0.3915 -0.0320  0.0349
    1W        W36122   0.025  18.780   7.544  0.0406  0.3547 -0.1887
    1W        W36123   2.002  28.766   1.575  0.2179 -0.1178 -0.0553
    1W        W36124   8.102   2.405   0.536 -0.0449  0.1359 -0.2454
    1W        W36125  22.053  26.534   8.554  0.0257  0.2595 -0.3317
    1W        W36126   7.736  12.477   1.661  0.0340  0.4321 -0.1315
    1W        W36127   3.203  12.590   6.019 -0.1324 -0.0803  0.1432
    1W        W36128   6.978  26.392   1.009 -0.2154 -0.3390  0.0525
    1W        W36129  28.567  24.134   6.947  0.0201  0.0708  0.2930
    1W        W36130  22.940  23.371   3.304 -0.1514 -0.1893 -0.0586
    1W        W36131  15.962  10.685   2.064  0.0968  0.2064 -0.2998
    1W        W36132  11.111  23.673   5.276 -0.1363 -0.1558  0.2853
    1W        W36133   6.696   3.379   2.904 -0.0097  0.3505 -0.3513
    1W        W36134  24.797  14.284   6.621  0.4656  0.1452 -0.2819
    1W        W36135  10.828  11.369   1.682 -0.1605 -0.1996 -0.1705
    1W        W36136   7.026   7.826   3.771  0.0103 -0.3026  0.0122
    1W        W36137  22.233   2.155   8.448 -0.1709  0.1546  0.2837
    1W        W36138   9.843  21.745   9.210  0.2414  0.2331  0.0349
    1W        W36139  22.216   4.525   8.666  0.3451  0.0563 -0.0646
    1W        W36140  25.783   0.743   7.945  0.2248 -0.2868 -0.0469
    1W        W36141  24.087  19.855   7.619 -0.1656  0.3003 -0.2534
    1W        W36142  29.663  25.024   8.218 -0.2254  0.0551 -0.0944
    1W        W36143  17.385  16.245   0.719  0.3485 -0.0430  0.0847
    1W        W36144  25.410  24.014   6.714 -0.0143  0.0887 -0.0883
    1W        W36145   6.217   2.628   0.309 -0.1081  0.1983 -0.0463
    1W        W36146   2.523  26.335   7.203 -0.4638  0.3921  0.1094
    1W        W36147  20.773  29.268   0.931  0.0080 -0.0478  0.0532
    1W        W36148  15.438  17.886   1.451  0.2775 -0.1864  0.1818
    1W        W36149  26.457  10.860   6.389 -0.1247 -0.0394 -0.0532
    1W        W36150  20.133  29.729   2.423  0.1509  0.0147  0.2689
    1W        W36151  22.812   4.414   8.592 -0.1326  0.4070 -0.0296
    1W        W36152  13.456  12.257   1.990 -0.0457 -0.1560  0.0170
    1W        W36153   7.075  22.950   6.211 -0.1595  0.3760 -0.0073
    1W        W36154   0.961  23.155   1.761  0.4005 -0.1132  0.2407
    1W        W36155  13.218  14.774   8.986  0.1132 -0.1516  0.2636
    1W        W36156   3.751   7.935   7.884 -0.0890 -0.0087  0.0298
    1W        W36157   7.509   0.614   7.880  0.0602 -0.2467  0.0721
    1W        W36158  15.942  10.808   2.631 -0.1267 -0.1966 -0.0268
    1W        W36159   8.733  24.576   6.489 -0.1012  0.1855  0.1270
    1W        W36160  22.164  17.034   9.122  0.1023  0.1181  0.0366
    1W        W36161  15.320  27.808   7.216  0.0873  0.0233 -0.0263
    1W        W36162   7.467  29.809   7.118 -0.2607 -0.4234 -0.0765
    1W        W36163  25.909  13.396   1.354  0.0720  0.2591  0.2072
    1W        W36164  12.605   4.077   0.772  0.1899 -0.0158  0.0129
    1W        W36165   7.880  20.838   9.316  0.1001 -0.3283 -0.0664
    1W        W36166  13.639   5.293   0.316 -0.2389 -0.1219  0.0070
    1W        W36167  21.034   2.843   8.497  0.0795  0.0361  0.1358
    1W        W36168  22.334  23.542   7.733  0.0606 -0.3674  0.1252
    1W        W36169  14.961  23.580   9.287 -0.1695  0.0053  0.1603
    1W        W36170  14.603  11.664   2.455  0.2407  0.1118 -0.0682
    1W        W36171   6.106   3.690   0.929  0.0970  0.1147 -0.2611
    1W        W36172  29.383  27.574   2.090 -0.3005  0.2453  0.0122
    1W        W36173  27.538   0.519   1.170 -0.1930  0.1290 -0.2209
    1W        W36174  23.075  28.719   1.129 -0.1478 -0.1859  0.2872
    1W        W36175  27.705  13.880   7.935 -0.0432 -0.2219 -0.0137
    1W        W36176  20.698  13.012   7.640 -0.0467 -0.1075 -0.2467
    1W        W36177  15.747  15.427   2.390 -0.2337  0.0354  0.2360
    1W        W36178  27.412   3.695   1.648  0.3800  0.2968  0.3428
    1W        W36179  24.624  16.052   0.858  0.0662  0.1078 -0.0446
    1W        W36180  18.001  19.853   7.843  0.2139  0.0808 -0.2715
    1W        W36181   6.054  25.213   0.732 -0.1245 -0.0892 -0.1355
    1W        W36182   7.237  20.600   0.111  0.1187  0.2098  0.3679
    1W        W36183  29.745  20.426   1.727  0.0453 -0.1081 -0.2289
    1W        W36184  16.293  27.673   2.256 -0.0340 -0.2487 -0.0849
    1W        W36185   1.019  20.457   8.765  0.2735  0.0071 -0.1649
    1W        W36186   6.515   4.275   0.137 -0.0825 -0.1682  0.1465
    1W        W36187   7.746  19.851   0.204  0.1352 -0.1540  0.3185
    1W        W36188   2.102  24.717   7.705 -0.0833  0.0173  0.1994
    1W        W36189   4.323  17.881   6.880 -0.0612 -0.1435  0.0790
    1W        W36190  15.348  20.976   7.754  0.1364  0.2149  0.0371
    1W        W36191   3.350  27.779   8.382 -0.0091 -0.3659 -0.0677
    1W        W36192  15.152   8.204   8.529  0.0191 -0.2309 -0.0219
    1W        W36193   6.987  27.657   9.085 -0.4333 -0.0862 -0.1756
    1W        W36194  25.661   6.318   3.484  0.1760  0.1978 -0.0974
    1W        W36195   7.417   4.703   8.702  0.0070  0.0629 -0.0434
    1W        W36196  22.092  15.580   9.389  0.1621  0.0815 -0.1020
    1W        W36197  15.996   6.905   0.668 -0.1925  0.0520  0.1400
    1W        W36198  26.755   5.910   8.369 -0.0253  0.2340 -0.1397
    1W        W36199  22.051   5.851   7.856  0.1640  0.0631  0.1386
    1W        W36200  15.562  21.539   1.525 -0.0680 -0.0436 -0.0935
    1W        W36201  10.228   8.713   0.914  0.0194  0.0560  0.3824
    1W        W36202  20.469  14.100   7.836  0.2906 -0.3048  0.0695
    1W        W36203  17.727  18.901   8.271 -0.0336  0.1803 -0.0980
    1W        W36204  15.916  14.554   1.613  0.0449 -0.2249  0.0640
    1W        W36205  18.066  29.048   1.195 -0.0880  0.1114  0.1186
    1W        W36206  29.533   1.463   1.047 -0.2042  0.0797 -0.2034
    1W        W36207   2.173  28.717   7.398  0.2163 -0.2705 -0.0007
    1W        W36208   9.417  22.646   6.649 -0.3346  0.1093  0.2091
    1W        W36209  26.215  15.577   1.384  0.0509  0.0383  0.3105
    1W        W36210  22.782  25.312   2.960 -0.1284  0.1243 -0.0173
    1W        W36211  22.066  14.407   8.202  0.1175 -0.0303  0.0517
    1W        W36212  10.395  22.501   7.478 -0.0448 -0.3415  0.2082
    1W        W36213  10.715  22.178   8.594  0.0346  0.0040  0.0267
    1W        W36214   9.377  21.001   9.063 -0.2227 -0.0877 -0.2292
    1W        W36215  28.208  28.774   0.964  0.0611  0.0610  0.0624
    1W        W36216  21.680   8.428   0.616  0.0830  0.1683 -0.2174
    1W        W36217   7.666  16.923   0.289 -0.0573  0.2533 -0.0112
    1W        W36218  20.988  15.279   0.793  0.1825  0.1472 -0.1382
    1W        W36219  26.897  19.157   7.883 -0.3013  0.2026 -0.0241
    1W        W36220  15.104  13.016   7.922  0.1310 -0.1538  0.0454
    1W        W36221  18.092   8.859   9.055  0.1038  0.2475 -0.1344
    1W        W36222   3.660   5.529   0.664 -0.1616  0.2609 -0.2668
    1W        W36223  12.210  16.787   0.490  0.3070  0.1327  0.0121
    1W        W36224  25.949  12.152   1.327  0.0126  0.3162  0.2373
    1W        W36225   3.850  28.432   7.927 -0.1022  0.0401 -0.0506
    1W        W36226   7.836  25.007   2.101  0.3196  0.1301 -0.0067
    1W        W36227  25.853  25.924   1.011  0.2721  0.1250 -0.2559
    1W        W36228  14.189  12.908   9.369 -0.0849  0.0982  0.1181
    1W        W36229  23.619   0.322   0.838  0.0593  0.0035 -0.1075
    1W        W36230  12.783   5.738   3.466  0.0459 -0.1023 -0.0914
    1W        W36231  21.206  17.862   0.442  0.1700 -0.1505  0.7341
    1W        W36232   4.178  29.325   7.319  0.1559  0.1672 -0.1444
    1W        W36233  23.011  27.625   8.945 -0.1851 -0.1095  0.0256
    1W        W36234  14.636  13.762   7.917 -0.1463  0.2120  0.0687
    1W        W36235  22.415   0.442   1.934 -0.6241 -0.0802 -0.0041
    1W        W36236   5.872   5.680   8.595 -0.1050  0.2909 -0.0043
    1W        W36237  20.608  28.132   0.111 -0.1860  0.0618 -0.1994
    1W        W36238   0.080  23.686   1.093  0.2718 -0.0599  0.1228
    1W        W36239  20.023  14.442   8.204  0.0881 -0.2431  0.0401
    1W        W36240  26.983   3.317   7.618  0.2053 -0.0373 -0.2603
    1W        W36241  16.946  23.332   2.529  0.1316  0.1042 -0.2297
    1W        W36242   5.662   1.617   2.619 -0.1031 -0.0964  0.1838
    1W        W36243  24.215  18.156   0.704  0.1148  0.0332  0.1193
    1W        W36244  29.816   8.278   7.558 -0.2675 -0.3284 -0.4843
    1W        W36245   3.987   8.751   8.997 -0.2068  0.0079 -0.1198
    1W        W36246   7.564  22.555   9.375 -0.2593  0.2310  0.1831
    1W        W36247  14.314  13.362   1.495  0.1970  0.0983 -0.0310
    1W        W36248  14.160  11.510   9.028  0.0038 -0.0291 -0.1067
    1W        W36249   3.156  17.045   9.133 -0.1324 -0.0549  0.0288
    1W        W36250  24.991  15.922   6.024 -0.0063  0.3237  0.1298
    1W        W36251   6.228   8.584   2.079  0.0196 -0.0004  0.0112
    1W        W36252   5.293  13.226   7.191 -0.0027 -0.0499 -0.0775
    1W        W36253  25.543  10.786   1.072 -0.0336  0.2545  0.0316
    1W        W36254  11.992   6.248   1.692  0.0019 -0.0854  0.1815
    1W        W36255  16.904   7.544   8.185  0.1552  0.0853  0.2850
    1W        W36256  22.629   1.153   8.517  0.0655  0.2721  0.0898
    1W        W36257   2.772  15.835   0.029  0.1087  0.1329  0.1080
    1W        W36258  12.729   4.933   9.357 -0.1288  0.1620  0.1055
    1W        W36259   0.419   2.180   1.023  0.0904 -0.2722  0.0141
    1W        W36260  20.297   2.103   0.668 -0.2086  0.1280 -0.1178
    1W        W36261  19.551   5.790   2.041  0.0570 -0.0955 -0.0960
    1W        W36262   4.946  27.652   7.767 -0.0035 -0.3482 -0.1787
    1W        W36263  15.907  15.604   7.807 -0.0064  0.1345 -0.1828
    1W        W36264  10.937  29.929   0.700 -0.0230 -0.2310 -0.1642
    1W        W36265  26.791  21.632   7.297 -0.0981  0.0485 -0.0281
    1W        W36266  18.274  28.079   6.463 -0.0098  0.2254 -0.0375
    1W        W36267  21.878   2.429   7.374  0.3122 -0.3506  0.2018
    1W        W36268   3.829  14.183   8.936  0.3337  0.1149  0.0835
    1W        W36269  10.023   3.606   7.273 -0.4033 -0.0225  0.0414
    1W        W36270   7.453  24.767   8.155  0.1066 -0.0123  0.0227
    1W        W36271  25.496  21.280   1.038 -0.0442 -0.0304  0.0606
    1W        W36272   2.793  29.545   7.748 -0.1001  0.2497  0.1887
    1W        W36273  13.637  10.316   7.424 -0.1006 -0.0500 -0.2119
    1W        W36274   6.605  23.701   0.399 -0.0116 -0.0191  0.0038
    1W        W36275   7.747  17.774   0.374  0.0052 -0.0328 -0.0525
    1W        W36276  22.241   4.183   7.231 -0.1529 -0.3550 -0.0973
    1W        W36277   5.211  11.947   1.132  0.0557 -0.1250  0.0909
    1W        W36278  25.223  30.068   7.813  0.1025  0.2539 -0.2573
    1W        W36279  27.265  19.462   5.420 -0.0367 -0.1407  0.0206
    1W        W36280  22.143  27.270   8.460  0.0317  0.0202  0.0465
    1W        W36281   5.530  10.617   1.368 -0.0017 -0.1212  0.2560
    1W        W36282   2.230   3.698   8.470  0.3273  0.2418 -0.2071
    1W        W36283  24.661   8.316   1.322  0.1248 -0.1029 -0.0731
    1W        W36284   4.418   2.762   8.875 -0.0164  0.1711 -0.0551
    1W        W36285   1.314   9.091   8.560  0.3486  0.1125 -0.2158
    1W        W36286   4.383  11.338   1.194 -0.1180 -0.0347  0.5709
    1W        W36287   4.538  14.255   2.449  0.2644  0.3713  0.0980
    1W        W36288   3.399   0.579   0.838 -0.2251 -0.3724  0.1968
    1W        W36289   5.528  19.783   7.586  0.1275  0.0330 -0.1463
    1W        W36290  15.664  23.555   7.078 -0.0326  0.2142 -0.0107
    1W        W36291  14.606  15.294   0.399 -0.1118  0.1342 -0.1372
    1W        W36292  25.241   1.888   1.090 -0.1736  0.1499  0.1194
    1W        W36293  14.340  18.269   7.214  0.0444 -0.0879  0.2951
    1W        W36294  25.160  10.070   2.501  0.2943  0.0668 -0.1235
    1W        W36295   9.933  12.035   7.949 -0.0994  0.0034 -0.0237
    1W        W36296   8.275  14.941   9.157  0.2925 -0.0330  0.0960
    1W        W36297   1.970   2.224   8.495  0.1799 -0.2374 -0.2758
    1W        W36298   4.288   1.760   7.620 -0.0136 -0.0317  0.1416
    1W        W36299  14.531  21.465   1.224  0.3257  0.0188 -0.0140
    1W        W36300  25.942   8.355   0.031 -0.0737 -0.3849  0.0181
    1W        W36301   3.002  14.615   1.415  0.0491  0.0922  0.0526
    1W        W36302  13.447  15.554   7.977 -0.0065  0.2641  0.2686
    1W        W36303  10.933  11.256   0.111 -0.2010 -0.2358  0.3074
    1W        W36304   9.571  16.390   7.085  0.0827  0.1693 -0.4273
    1W        W36305   8.872  20.620   9.000  0.0658  0.0545 -0.0926
    1W        W36306  22.930  12.367   0.928 -0.0464 -0.0781 -0.0719
    1W        W36307   8.335   3.686   2.771  0.3163 -0.0205 -0.1794
    1W        W36308  18.894  15.353   7.755 -0.1225 -0.0427 -0.1346
    1W        W36309  14.247   7.178   7.885  0.0546  0.0345  0.1548
    1W        W36310   5.028  19.359   6.849 -0.0200 -0.1267 -0.2941
    1W        W36311  20.676  27.600   6.092 -0.4136  0.0778 -0.0618
    1W        W36312  26.584  26.312   0.536 -0.0300 -0.0101 -0.3869
    1W        W36313   5.788  15.861   0.967  0.0595  0.0591 -0.1599
    1W        W36314  29.733  10.625   6.520  0.2137 -0.1173  0.0462
    1W        W36315  24.095  14.972   8.268 -0.0398 -0.2280 -0.1671
    1W        W36316  29.430  12.668   5.700 -0.1533 -0.0716 -0.3292
    1W        W36317  24.978   1.075   8.373 -0.2500 -0.2608  0.0594
    1W        W36318  24.149  24.865   0.111 -0.1686 -0.0395  0.3207
    1W        W36319  27.468   1.475   1.782  0.0755 -0.0008  0.1537
    1W        W36320  24.317  19.382   7.428 -0.0119  0.0770  0.0642
    1W        W36321  23.334   6.892   1.153  0.0775 -0.0381 -0.1367
    1W        W36322  16.380  23.669   1.577  0.1697 -0.2074 -0.2739
    1W        W36323   9.884  26.794   8.190 -0.1222 -0.0740 -0.0570
    1W        W36324   4.431  24.703   9.100 -0.3713  0.1243 -0.1124
    1W        W36325  11.709  13.391   7.154 -0.1191 -0.0245 -0.0546
    1W        W36326   5.247  24.323   0.387 -0.0497 -0.0873 -0.1837
    1W        W36327  27.385   6.127   0.954  0.2893 -0.1704 -0.0593
    1W        W36328   4.123  19.458   1.073  0.0249 -0.3818 -0.0100
    1W        W36329  11.971  20.205   1.239  0.1689 -0.2415  0.0354
    1W        W36330  12.189  23.932   2.457 -0.0878  0.1945 -0.0827
    1W        W36331   0.569  17.976   5.137 -0.0644  0.2771 -0.1827
    1W        W36332  11.722   6.412   4.000 -0.0370 -0.0749  0.1628
    1W        W36333   7.783  20.272   2.025  0.0326 -0.0454 -0.1264
    1W        W36334  16.761  27.738   7.176 -0.1529  0.0939  0.1922
    1W        W36335  26.367   6.160   1.690  0.1013 -0.2337 -0.1862
    1W        W36336  26.258   0.600   8.129  0.0082 -0.0389 -0.0432
    1W        W36337   6.962  18.918   6.250 -0.0983 -0.3132  0.1888
    1W        W36338  21.844   8.486   0.006 -0.2475  0.0422  0.0690
    1W        W36339  25.555   9.204   8.449  0.1012 -0.2363  0.1724
    1W        W36340  30.132  21.906   0.666 -0.0925  0.2357 -0.0935
    1W        W36341  24.485   5.100   7.842  0.2673  0.1525 -0.1080
    1W        W36342  21.189   1.366   1.613  0.1338  0.0642  0.0699
    1W        W36343   2.047  29.238   7.229  0.0269 -0.4025 -0.0881
    1W        W36344  17.171  26.267   9.163 -0.0538 -0.3827 -0.1388
    1W        W36345  23.220   1.040   9.371 -0.0832 -0.0830  0.2452
    1W        W36346  24.050  18.396   0.230  0.3109  0.3117 -0.0422
    1W        W36347  21.365  24.074   0.887 -0.2673  0.2241  0.0330
    1W        W36348  29.306  24.747   7.956  0.1249 -0.2676  0.0576
    1W        W36349  13.883  28.501   8.067 -0.0556  0.2993 -0.0074
    1W        W36350  22.660  10.624   2.284  0.1563 -0.2261 -0.0247
    1W        W36351  11.099   0.912   2.512  0.0010  0.0083 -0.0607
    1W        W36352  15.428   2.571   2.337  0.2403  0.1068 -0.0486
    1W        W36353  16.056  27.806   1.843  0.1117  0.0236 -0.1651
    1W        W36354   0.108  12.175   5.495  0.3992 -0.2592  0.0441
    1W        W36355  29.120  21.433   8.864 -0.2499 -0.4467  0.0466
    1W        W36356   2.097  18.464   6.275  0.3175  0.0330  0.1237
    1W        W36357  16.169  24.714   7.281 -0.1577 -0.2466 -0.0915
    1W        W36358   6.860  18.743   7.588  0.0184  0.2523 -0.1453
    1W        W36359   5.364   1.362   0.520  0.1859 -0.0962  0.1388
    1W        W36360  12.111  11.735   2.094  0.2580 -0.0822 -0.2636
    1W        W36361  21.104  24.790   6.840  0.2605 -0.2011 -0.1344
    1W        W36362  28.226   7.005   8.356  0.0808 -0.0820 -0.0974
    1W        W36363   2.184  29.260   2.769 -0.1831  0.0871 -0.1383
    1W        W36364   9.722  25.031   8.620  0.3180  0.2927 -0.1758
    1W        W36365  19.354   7.517   8.709 -0.0006 -0.0276  0.0640
    1W        W36366  13.016   7.963   0.353 -0.0358 -0.3463  0.1128
    1W        W36367  12.897  26.920   7.495 -0.4476 -0.1978  0.0010
    1W        W36368  28.140  25.356   0.418  0.2747 -0.0660  0.1835
    1W        W36369  21.920   6.915   0.243 -0.0985 -0.0155 -0.0503
    1W        W36370  28.673   8.975   8.329  0.0413 -0.2188 -0.1703
    1W        W36371  19.483  20.449   6.736  0.3258  0.0266  0.0539
    1W        W36372  28.812  22.387   1.771 -0.3020  0.0011 -0.3101
    1W        W36373  12.269  18.245   0.754 -0.2707 -0.0405 -0.0885
    1W        W36374   6.296  19.647   6.714 -0.0121  0.0604 -0.1246
    1W        W36375   1.612   9.827   1.402  0.0404 -0.2174 -0.0764
    1W        W36376  10.082  26.714   1.182  0.2056  0.1747  0.0424
    1W        W36377  26.892   1.904   2.219  0.3020 -0.2046 -0.2956
    1W        W36378  20.259  29.975   8.891 -0.0014  0.2626 -0.2865
    1W        W36379  27.248  27.347   8.598  0.1734 -0.3539 -0.1310
    1W        W36380  17.709   4.955   3.201 -0.0197  0.0512 -0.1174
    1W        W36381   9.891   7.792   7.650  0.0050  0.3302 -0.1327
    1W        W36382   5.834   2.493   7.630 -0.0286 -0.0335  0.0115
    1W        W36383  22.152   1.269   8.754  0.1796  0.3048  0.1415
    1W        W36384  10.975  18.889   0.067  0.2633 -0.0818 -0.0961
    1W        W36385   2.839  14.831   0.086  0.0483  0.1722 -0.3413
    1W        W36386  21.783   0.190   0.202 -0.2674 -0.1163  0.2094
    1W        W36387  14.174   4.546   3.500  0.1156  0.1602  0.0691
    1W        W36388   5.819   4.209   7.921  0.1947 -0.1286  0.2485
    1W        W36389  12.593   0.187   8.886  0.0182  0.1180 -0.1969
    1W        W36390  28.051   4.880   1.013 -0.1071 -0.1177  0.0247
    1W        W36391   4.783  27.023   7.207  0.4993 -0.1481 -0.0434
    1W        W36392  17.202  23.612   7.155  0.0168 -0.6350  0.2022
    1W        W36393  22.338  14.403   0.521  0.0948  0.0346 -0.2461
    1W        W36394  19.216   5.502   1.797  0.1065 -0.1524  0.0322
    1W        W36395  24.084   3.032   7.992 -0.0932  0.2040 -0.3915
    1W        W36396  10.526   9.268   0.047 -0.1733 -0.0928 -0.1252
    1W        W36397  24.401  17.127   0.794  0.1776 -0.2178 -0.1929
    1W        W36398   3.817   9.999   8.465 -0.0063 -0.2906  0.2140
    1W        W36399  24.010   2.888   7.443 -0.2184  0.0511 -0.1378
    1W        W36400  12.699  17.552   0.305 -0.0213  0.3604 -0.0471
    1W        W36401   5.538  22.511   0.777 -0.2620 -0.1928  0.0231
    1W        W36402  25.082  10.785   6.843 -0.0452  0.0821 -0.1523
    1W        W36403  29.441  17.894   8.115  0.2982 -0.2918 -0.1976
    1W        W36404  27.141  27.738   1.045 -0.2701 -0.1229  0.3014
    1W        W36405  15.008   1.729   8.646  0.3262  0.0262 -0.1309
    1W        W36406  20.994  10.587   0.933  0.1666 -0.0386  0.1696
    1W        W36407   3.030  11.054   0.366  0.0007  0.2132 -0.4022
    1W        W36408  25.698  17.965   0.433  0.0362  0.3422 -0.0563
    1W        W36409  20.961   5.481   1.867  0.1913  0.2380 -0.1272
    1W        W36410  20.190  27.969   8.026  0.1142  0.1698  0.1250
    1W        W36411  28.489   3.445   7.544  0.3147  0.1298  0.0903
    1W        W36412   8.986   3.062   7.977 -0.0763  0.0392 -0.1695
    1W        W36413   4.704  18.954   6.807 -0.3111  0.1963  0.2399
    1W        W36414   1.745  11.300   7.530 -0.2504  0.1544 -0.1616
    1W        W36415   8.660   0.646   7.688  0.1524 -0.0470 -0.3439
    1W        W36416  16.437  11.513   7.705 -0.0732 -0.1864 -0.0874
    1W        W36417  20.517   0.742   1.224 -0.3710  0.1058  0.0747
    1W        W36418  25.962  17.689   8.707 -0.0722 -0.0751 -0.3224
    1W        W36419  29.361  12.725   7.169  0.0020 -0.4365 -0.0832
    1W        W36420  27.356  19.249   7.686  0.0988 -0.0704 -0.1861
    1W        W36421  15.190   2.539   8.739 -0.1498  0.0126 -0.3168
    1W        W36422  22.621   8.926   6.981 -0.1009 -0.1141  0.0627
    1W        W36423  27.442  29.644   2.902  0.0946  0.1649  0.0171
    1W        W36424   9.238  20.948   2.185 -0.0691  0.0615  0.0967
    1W        W36425   5.589  11.582   7.814  0.0110  0.1047  0.2251
    1W        W36426  20.637  23.982   0.546 -0.1646 -0.0544 -0.0889
    1W        W36427   1.025  22.239   9.173  0.1117  0.0298 -0.0367
    1W        W36428  26.868   1.826   6.941 -0.2640  0.0025  0.2505
    1W        W36429  26.432  18.379   7.573  0.0373 -0.0321  0.0757
    1W        W36430  18.398  12.844   6.939 -0.0760  0.0187 -0.0414
    1W        W36431  10.839  14.463   8.299 -0.3765  0.0378 -0.2555
    1W        W36432  20.894  14.933   6.318  0.0563 -0.0999  0.0992
    1W        W36433   0.912  12.277   6.384 -0.1689 -0.2136  0.2457
    1W        W36434  26.683  15.465   1.228  0.2416 -0.2796 -0.0222
    1W        W36435  24.857   5.576   6.804  0.0381 -0.2426  0.2198
    1W        W36436  28.001  23.006   6.558 -0.0424  0.1338 -0.0802
    1W        W36437  20.136  13.016   1.132 -0.0566  0.3478 -0.0217
    1W        W36438  18.738  23.374   0.088  0.1126  0.1809 -0.0492
    1W        W36439   1.520  27.607   0.951  0.0422 -0.0042  0.0167
    1W        W36440  20.337   6.573   6.756  0.1750 -0.1247  0.2384
    1W        W36441  29.696  27.313   1.574  0.3379 -0.1514  0.1815
    1W        W36442  13.362  19.682   1.699  0.2691  0.1913  0.2267
    1W        W36443   7.372   9.739   1.589  0.0732 -0.1671  0.1724
    1W        W36444  20.701   6.159   1.340 -0.0552 -0.2041  0.0584
    1W        W36445  19.823  17.128   1.603 -0.2148 -0.0646  0.3071
    1W        W36446  17.178  22.394   0.689  0.2185 -0.0299  0.3119
    1W        W36447  19.605  11.893   0.863 -0.1733 -0.2164  0.0160
    1W        W36448  23.277  10.074   8.525 -0.1253 -0.1621  0.1977
    1W        W36449   2.649  25.392   8.141  0.0122 -0.3821 -0.2593
    1W        W36450  15.480  22.971   0.582  0.1496 -0.0243  0.0267
    1W        W36451  19.700  27.516   8.155 -0.0515 -0.0806 -0.1168
    1W        W36452   4.498  13.319   1.745  0.1044 -0.1836 -0.0310
    1W        W36453   1.764  14.066   1.656  0.0934 -0.1996 -0.0588
    1W        W36454   0.333  14.119   8.514 -0.7242 -0.0073 -0.0719
    1W        W36455  23.275  24.113   2.449 -0.2365 -0.1327  0.0877
    1W        W36456   3.363  28.126   3.734 -0.0748  0.0774 -0.1039
    1W        W36457  30.074   1.367   1.311 -0.1797  0.1137 -0.0159
    1W        W36458   5.392   4.518   7.018 -0.0632 -0.0659  0.2652
    1W        W36459  22.547  14.634   6.673 -0.0696 -0.0291 -0.1406
    1W        W36460   1.689  16.338   6.584  0.0031 -0.3992  0.2763
    1W        W36461   4.498   3.108   1.947  0.0649 -0.3419  0.0856
    1W        W36462  15.848   1.135   1.775 -0.0306  0.2274 -0.0446
    1W        W36463  22.287  23.123   7.042 -0.0300  0.0337 -0.0204
    1W        W36464   2.139  18.569   0.123  0.3605  0.3932  0.1417
    1W        W36465   7.230  14.276   1.023  0.0417  0.0010 -0.0353
    1W        W36466  24.702  21.839   0.583  0.0956  0.4241 -0.3152
    1W        W36467  17.361  16.646   8.694  0.0289 -0.1793 -0.2611
    1W        W36468  13.180  11.779   8.718 -0.2583 -0.0808 -0.0689
    1W        W36469   4.651   3.074   9.143  0.0246 -0.1901  0.4788
    1W        W36470  28.682  20.014   7.829  0.2775  0.0619  0.0279
    1W        W36471  23.642  12.108   8.283 -0.1264  0.3234  0.0340
    1W        W36472   2.401   3.130   3.445 -0.2091  0.3995 -0.1497
    1W        W36473  11.064  18.080   7.025  0.0322 -0.3121  0.0451
    1W        W36474  17.379  13.310   8.454  0.0827  0.0382  0.0878
    1W        W36475  16.975   1.226   8.385 -0.0712  0.3231  0.2237
    1W        W36476   4.624   0.080   8.151 -0.0651  0.0389  0.1865
    1W        W36477  17.111   0.240   8.450 -0.1567 -0.0609 -0.1972
    1W        W36478   0.633  27.491   0.453  0.1853 -0.2852  0.0624
    1W        W36479   8.941  10.309   2.520  0.0976 -0.2137 -0.0221
    1W        W36480  25.785  27.719   2.244  0.0378 -0.2524 -0.3086
    1W        W36481  17.045  19.793   0.635 -0.0838  0.0912 -0.1825
    1W        W36482  23.179   8.217   6.957  0.0202  0.0677 -0.0484
    1W        W36483   6.420  27.057   0.041  0.1541 -0.2389 -0.0942
    1W        W36484  16.014   4.885   2.862 -0.0528  0.0276  0.0518
    1W        W36485  13.117   0.839   2.380  0.2842 -0.0352  0.0895
    1W        W36486  22.620  28.211   0.400 -0.1853 -0.0272  0.1770
    1W        W36487   8.186  20.765   6.575  0.3455  0.0201  0.1014
    1W        W36488  17.089  26.735   9.152 -0.2108 -0.0245 -0.1942
    1W        W36489   2.840  11.369   2.232  0.0681 -0.0121 -0.0795
    1W        W36490  23.166  29.495   2.542 -0.1230 -0.3797 -0.0507
    1W        W36491  18.817  26.062   1.686 -0.3555 -0.0689  0.1435
    1W        W36492  26.875   5.382   2.812 -0.1827  0.3511 -0.2438
    1W        W36493  25.641   0.464   8.376  0.1454  0.2048 -0.1546
    1W        W36494   1.941  26.977   1.265 -0.1934  0.1846  0.0090
    1W        W36495  29.140   9.932   1.631  0.1998 -0.1801 -0.0508
    1W        W36496  17.137  11.218   7.452  0.2367 -0.2270 -0.1265
    1W        W36497  25.049  19.530   8.769 -0.2129 -0.0437 -0.1030
    1W        W36498  19.806   7.348   8.665  0.1694 -0.0368 -0.0033
    1W        W36499   2.225  21.292   1.548  0.1116 -0.0426  0.2226
    1W        W36500  16.848   7.267   0.622 -0.2453 -0.1880  0.1230
    1W        W36501  28.628   6.346   9.044  0.0938  0.0524  0.0027
    1W        W36502  13.673   3.963   1.345  0.0162  0.3151  0.0911
    1W        W36503   4.439  11.271   8.727  0.0110  0.0901  0.1479
    1W        W36504   2.882  27.215   2.150 -0.0543  0.0036 -0.0170
    1W        W36505   5.529   4.140   3.440 -0.2359 -0.0355  0.1073
    1W        W36506  10.445  10.468   1.666 -0.1439  0.3125 -0.3108
    1W        W36507  10.620  12.340   0.386 -0.0341  0.3054  0.2213
    1W        W36508   5.428  13.801   2.174 -0.0650 -0.0938 -0.2973
    1W        W36509  28.138  29.816   0.846 -0.1558  0.1678  0.1450
    1W        W36510   2.597  26.602   7.616  0.0962  0.3382  0.0099
    1W        W36511  22.884  22.474   7.690 -0.1646 -0.0259  0.1288
    1W        W36512   1.557  19.608   2.056 -0.0684  0.0055  0.0170
    1W        W36513  16.447   2.205   0.885  0.0266 -0.2493 -0.2280
    1W        W36514  11.473   7.890   7.541  0.2474 -0.1029  0.1862
    1W        W36515  18.628  27.935   8.766  0.1474 -0.0171 -0.0483
    1W        W36516   9.887  22.748   7.374  0.2502  0.1041  0.2849
    1W        W36517  18.895  17.102   7.285 -0.1030 -0.1344 -0.0187
    1W        W36518   6.656  28.652   2.353 -0.1162  0.0221 -0.1967
    1W        W36519  10.938  11.672   2.410 -0.0827 -0.2242 -0.2211
    1W        W36520   3.473   4.903   0.947 -0.0190 -0.0373 -0.3024
    1W        W36521  25.004  13.678   0.391 -0.1084  0.0987  0.0436
    1W        W36522   6.587  11.780   2.735 -0.1887 -0.0568 -0.2693
    1W        W36523   0.753  11.545   0.680  0.1418  0.1771  0.0125
    1W        W36524   2.068  10.770   6.809 -0.1301 -0.0239  0.2927
    1W        W36525  23.841  10.188   8.086  0.4092  0.1288  0.2323
    1W        W36526   8.854   1.695   0.517  0.1078  0.0548 -0.0497
    1W        W36527  28.872   8.995   6.883 -0.0276  0.1990  0.0462
    1W        W36528   3.137  28.639   0.185 -0.2564 -0.0685  0.1686
    1W        W36529  20.236  17.409   7.148 -0.2460  0.2637 -0.1967
    1W        W36530   3.191  12.379   8.097 -0.0342 -0.2019 -0.0298
    1W        W36531   8.033  12.995   8.578  0.2163  0.1430  0.2488
    1W        W36532  23.350   2.903   0.316 -0.0588 -0.1720  0.1883
    1W        W36533   4.191  27.455   8.455  0.2186 -0.0183  0.0475
    1W        W36534   3.496  17.514   0.336  0.0030 -0.1087  0.0611
    1W        W36535  14.160  21.876   2.171  0.0924 -0.2210  0.3288
    1W        W36536   3.829  11.222   2.413  0.0642  0.0225  0.0159
    1W        W36537  23.884   5.375   2.856 -0.1620  0.0550  0.2375
    1W        W36538  16.129  25.839   8.733  0.0126 -0.3717 -0.0192
    1W        W36539  17.019  12.602   8.902  0.0536  0.0208  0.2312
    1W        W36540   1.997   2.308   6.479 -0.0354 -0.0043 -0.2737
    1W        W36541   3.853  28.583   9.293  0.4483 -0.0661 -0.1869
    1W        W36542  26.263  29.071   7.214  0.2130 -0.0439  0.1448
    1W        W36543  20.032   9.612   6.573  0.0791 -0.0747 -0.1224
    1W        W36544  29.710   7.259   8.103  0.0165 -0.2575  0.0160
    1W        W36545  27.351   2.356   8.358  0.2866 -0.5020  0.0409
    1W        W36546   4.423   1.440   0.136  0.2394 -0.1173 -0.3448
    1W        W36547   5.614  16.875   1.157  0.1351 -0.0782  0.0317
    1W        W36548  30.013   3.127   7.797  0.2025  0.0124  0.0584
    1W        W36549  18.173  10.555   2.631  0.0577 -0.1906 -0.1980
    1W        W36550   3.652  28.657   8.834 -0.0858  0.1961  0.1558
    1W        W36551  20.616  19.969   8.975  0.1443 -0.1295  0.0739
    1W        W36552  25.791   1.212   1.705  0.0941 -0.0401 -0.2149
    1W        W36553  17.060  24.519   0.502 -0.0928  0.0506  0.0325
    1W        W36554  24.405  24.632   3.165  0.0097  0.0527  0.1184
    1W        W36555  17.469  25.583   1.600  0.1453  0.0155  0.3187
    1W        W36556  20.113  15.889   0.837  0.1441  0.0566 -0.1671
    1W        W36557   0.187  28.643   0.252 -0.4501 -0.0610  0.0568
    1W        W36558  23.892   1.792   0.988  0.1711 -0.0804  0.1052
    1W        W36559  22.484  14.803   1.801  0.0804  0.0082 -0.1180
    1W        W36560   6.103  13.315   0.171  0.2950  0.2234  0.2125
    1W        W36561  28.786  23.370   8.500 -0.0259  0.2373 -0.1416
    1W        W36562  29.294  20.150   7.506 -0.1255  0.1714  0.0866
    1W        W36563  25.512  14.319   8.079 -0.0599 -0.2873 -0.0170
    1W        W36564  16.702  22.785   7.325  0.2251  0.0566 -0.1233
    1W        W36565   1.029  21.699   1.484  0.1494  0.0249  0.1181
    1W        W36566  13.828  18.928   1.615 -0.2460 -0.0226 -0.1254
    1W        W36567  17.347  23.346   1.790 -0.1442  0.2440  0.1172
    1W        W36568  11.101  18.336   6.539  0.0038 -0.0556  0.2145
    1W        W36569  18.160   3.507   8.195  0.1895 -0.2492 -0.1002
    1W        W36570   2.517  21.195   9.357 -0.2775 -0.0178  0.0935
    1W        W36571  23.961  25.275   0.249  0.0465 -0.2889 -0.0699
    1W        W36572  28.793  14.556   9.123  0.2971 -0.0712  0.0160
    1W        W36573  16.682  11.123   7.483 -0.0488 -0.2093 -0.1357
    1W        W36574  12.915  24.809   9.194 -0.1487 -0.1940  0.0858
    1W        W36575  22.897  23.492   6.490 -0.0669  0.2489  0.0683
    1W        W36576  27.323   3.201   1.744 -0.2781 -0.2326 -0.0182
    1W        W36577   6.557  29.274   2.880  0.3656 -0.0526 -0.2350
    1W        W36578  14.693   0.592   0.510  0.0361  0.1579  0.0114
    1W        W36579  30.124   7.756   6.967  0.1914  0.0081 -0.1624
    1W        W36580   0.165  15.733   6.088  0.0831 -0.0680  0.1001
    1W        W36581   7.230  27.694   1.950  0.0076  0.0800 -0.0407
    1W        W36582  27.270  20.840   7.185  0.0126  0.0494  0.1361
    1W        W36583   2.151  12.634   7.561  0.1367  0.1658 -0.3051
    1W        W36584  12.189  21.095   1.260 -0.2524 -0.1846 -0.0988
    1W        W36585  22.480  11.140   8.866  0.1202 -0.0704  0.2857
    1W        W36586   2.984  10.053   5.976  0.0858  0.3105 -0.1831
    1W        W36587  15.541  28.962   2.454 -0.0124 -0.0824  0.1268
    1W        W36588   0.945  19.139   8.039  0.0569 -0.0328  0.1362
    1W        W36589  20.542  25.614   8.048 -0.0632 -0.2004 -0.0137
    1W        W36590  12.931  13.577   7.334 -0.3625 -0.0119 -0.0163
    1W        W36591  17.290  17.846   2.134  0.0847 -0.1700  0.1233
    1W        W36592  21.709  23.788   6.564 -0.0127 -0.2908 -0.1023
    1W        W36593  11.279  14.876   7.331  0.3764  0.1920  0.1872
    1W        W36594  25.910   0.694   7.216 -0.6751  0.0780 -0.0571
    1W        W36595   0.778  23.350   0.614 -0.3273 -0.0024  0.6722
    1W        W36596  14.926  25.111   8.091 -0.3808 -0.1159 -0.1361
    1W        W36597   0.894  16.243   6.240 -0.2510  0.4268 -0.0487
    1W        W36598   5.914   9.823   6.865  0.3611  0.1143  0.0728
    1W        W36599   4.389  20.715   6.502  0.1481  0.0261  0.2404
    1W        W36600  15.754   0.582   1.297  0.0262  0.1370 -0.1512
    1W        W36601  28.848   8.031   9.082  0.0207 -0.0544  0.1623
    1W        W36602  21.962  17.136   6.657 -0.0722  0.3223  0.0217
    1W        W36603   8.076  24.270   8.032 -0.2275  0.0718 -0.2655
    1W        W36604  26.265  21.927   1.773 -0.2044  0.0951 -0.1171
    1W        W36605   6.211   8.494   7.040  0.1997  0.0560 -0.0515
    1W        W36606  25.418   5.494   0.520  0.0601  0.0183  0.2642
    1W        W36607   6.848   0.424   9.170  0.0037 -0.3790  0.0053
    1W        W36608  28.300  18.301   7.859 -0.1853  0.0525  0.1234
    1W        W36609  25.281  25.143   8.103 -0.1172 -0.1098 -0.1521
    1W        W36610  29.759  27.864   0.135  0.2730 -0.3109  0.2151
    1W        W36611  20.762   9.787   2.186  0.4349 -0.0905  0.1187
    1W        W36612   9.865   0.160   1.558 -0.1598 -0.0367  0.1423
    1W        W36613  16.078   1.022   7.972 -0.3336  0.0690 -0.4893
    1W        W36614   4.406   9.572   7.485 -0.0803 -0.3165 -0.1604
    1W        W36615  23.939  10.159   7.602 -0.3637 -0.0842  0.1204
    1W        W36616  27.810  23.151   8.778  0.2665 -0.2025  0.3290
    1W        W36617  24.085  15.815   1.772 -0.2094  0.0794  0.0812
    1W        W36618  27.063  28.601   7.031  0.1352 -0.0223 -0.3336
    1W        W36619  19.455  23.479   1.393 -0.0813 -0.0636 -0.3280
    1W        W36620  12.945  11.760   0.211 -0.1948 -0.1536 -0.0091
    1W        W36621  22.091  29.136   1.834 -0.1323  0.4556  0.2690
    1W        W36622  20.385   5.493   7.679  0.0967  0.0793  0.2687
    1W        W36623   2.494  28.309   6.671  0.1577  0.1098 -0.2343
    1W        W36624  20.215   4.753   8.362  0.2279 -0.0294 -0.2020
    1W        W36625   3.964   5.454   9.066  0.1906 -0.0104  0.0997
    1W        W36626  24.365  16.579   1.335 -0.1144 -0.2737  0.0752
    1W        W36627  24.104  26.848   8.882  0.1314 -0.2460  0.0736
    1W        W36628  26.635  19.831   8.408  0.1603 -0.0689  0.0630
    1W        W36629  12.256   2.389   0.680 -0.0972 -0.0919  0.0656
    1W        W36630  25.883  29.441   6.086 -0.1544  0.1033 -0.0756
    1W        W36631   3.273  28.702   2.416 -0.3293  0.0248  0.1383
    1W        W36632  24.603   1.700   7.975  0.0368 -0.1039 -0.0385
    1W        W36633   2.698  29.088   1.009  0.1912  0.0889  0.1845
    1W        W36634   1.296   5.620   1.627 -0.3735  0.2390  0.2695
    1W        W36635  12.202  13.386   1.256  0.1823 -0.0530 -0.1098
    1W        W36636  20.565   1.715   1.481  0.1057 -0.1222  0.1848
    1W        W36637   8.881  27.566   7.261  0.1186  0.0446 -0.0743
    1W        W36638  14.828  19.881   0.172  0.0402 -0.2093  0.1551
    1W        W36639  25.862  24.510   6.187  0.5588 -0.3637  0.1384
    1W        W36640   7.808   6.575   0.659 -0.2796  0.1908  0.0767
    1W        W36641  18.779   0.825   3.572  0.0424 -0.2012 -0.1597
    1W        W36642   5.058   9.705   7.269 -0.0974  0.1167 -0.2251
    1W        W36643  29.876   1.105   2.505 -0.2798 -0.1803 -0.1464
    1W        W36644  18.262  18.450   0.069  0.1125 -0.0726 -0.0394
    1W        W36645   5.696   1.092   7.709  0.1501  0.1174 -0.0361
    1W        W36646  20.332   8.470   8.760  0.1686 -0.4779 -0.1627
    1W        W36647  20.632   5.771   7.975 -0.0970  0.0570 -0.0434
    1W        W36648  23.866   1.797   1.508 -0.1814  0.2659  0.0479
    1W        W36649  17.993  14.033   0.991  0.1357 -0.0215  0.1846
    1W        W36650   7.685  19.221   5.790 -0.1565 -0.1534  0.1762
    1W        W36651   8.512  16.134   7.507  0.1056  0.3261  0.2740
    1W        W36652  29.945  22.949   5.578 -0.0707 -0.1565  0.4055
    1W        W36653   8.487  10.002   0.502 -0.1684 -0.0179  0.2874
    1W        W36654   4.697  25.392   7.891  0.3184  0.2296 -0.0763
    1W        W36655  15.011   1.704   0.666 -0.1253  0.1951  0.0425
    1W        W36656  13.348  26.700   7.520 -0.0766 -0.1098 -0.0742
    1W        W36657   7.829  18.528   8.744  0.0803 -0.0212 -0.0757
    1W        W36658  21.376  10.394   1.903  0.1787  0.2388  0.0877
    1W        W36659  19.080  25.357   0.530 -0.1862  0.1678  0.2898
    1W        W36660   2.763  27.175   2.666  0.3020  0.0663 -0.3550
    1W        W36661  18.492  22.117   6.393 -0.0151 -0.0315 -0.1827
    1W        W36662  16.390  17.515   6.750 -0.0666  0.1795 -0.0373
    1W        W36663  12.475  23.574   2.160  0.2068 -0.2355  0.3324
    1W        W36664  23.027   1.609   6.970  0.2368  0.0267  0.3968
    1W        W36665   6.569   5.961   2.786 -0.1517 -0.1611  0.3052
    1W        W36666  21.839   1.391   7.945 -0.0775 -0.0870  0.1247
    1W        W36667   4.031  22.301   7.849  0.0138 -0.0794 -0.4076
    1W        W36668   5.760  20.206   8.418 -0.1406  0.2203  0.0441
    1W        W36669  29.558  29.522   7.931  0.1121 -0.2696  0.3444
    1W        W36670  12.782  22.999   9.060  0.1201  0.0018 -0.2407
    1W        W36671   7.158  19.286   5.887 -0.0238  0.2661  0.0964
    1W        W36672  28.371  28.424   1.900  0.1474 -0.0500  0.4097
    1W        W36673   4.650  21.371   0.674 -0.3602  0.0458  0.0773
    1W        W36674   3.923  20.999   0.241  0.1276  0.3234 -0.2153
    1W        W36675  29.896  12.583   1.314  0.0734 -0.1158 -0.1549
    1W        W36676  14.367  27.537   0.972 -0.0058 -0.5365  0.0761
    1W        W36677   9.069   6.809   2.869  0.1312 -0.5396  0.3279
    1W        W36678  29.376  28.219   8.874 -0.0072  0.1281  0.1553
    1W        W36679  23.150   0.794   2.332  0.1258 -0.1326 -0.0077
    1W        W36680  22.604   1.273   0.258 -0.0601  0.1635  0.0264
    1W        W36681  27.364  11.420   1.094  0.2230  0.0361  0.2245
    1W        W36682  18.310  17.033   7.358 -0.0320  0.1876 -0.1372
    1W        W36683   1.603   7.016   1.743 -0.1868 -0.0955 -0.2601
    1W        W36684  23.031  25.116   8.796 -0.1465  0.1057  0.2345
    1W        W36685  22.804   9.749   0.065 -0.1295 -0.0408 -0.1399
    1W        W36686  23.609   3.039   8.064 -0.0805 -0.2069 -0.1207
    1W        W36687  26.871   6.384   1.071 -0.1559 -0.4231 -0.1046
    1W        W36688  17.018  23.028   1.445 -0.0577 -0.0105  0.1006
    1W        W36689  10.925  12.655   0.135 -0.3642  0.0154  0.0163
    1W        W36690  27.403  14.492   0.565 -0.0416 -0.0366  0.0386
    1W        W36691   8.774  24.729   8.311  0.0497 -0.0515  0.1783
    1W        W36692  15.373   9.279   7.084  0.0646  0.1014 -0.1490
    1W        W36693   6.549  13.210   2.355 -0.0815 -0.2303 -0.1110
    1W        W36694   3.087   2.422   9.087 -0.0100  0.1030  0.1850
    1W        W36695   7.828   6.036   2.614  0.2889  0.2161  0.1618
    1W        W36696  26.783   9.502   7.126 -0.3182 -0.2027 -0.2538
    1W        W36697  23.111  15.316   7.764 -0.1835 -0.2071  0.0414
    1W        W36698   7.256  20.344   8.597  0.2675 -0.0572 -0.0478
    1W        W36699  14.720   7.546   9.050 -0.3210  0.0682 -0.0952
    1W        W36700   7.403  26.687   6.765  0.3074  0.1709 -0.1269
    1W        W36701  24.476  17.603   9.394 -0.2111 -0.1627  0.1542
    1W        W36702   1.127  30.124   8.384  0.1492 -0.1419  0.1020
    1W        W36703   4.169   3.285   0.487 -0.0261  0.0997 -0.0390
    1W        W36704   1.617   6.818   9.293 -0.1224  0.0575  0.1613
    1W        W36705  26.242   9.060   0.949  0.1923 -0.3203 -0.2310
    1W        W36706  22.600   1.940   0.875  0.1321  0.1871 -0.1328
    1W        W36707  14.397   2.949   8.585  0.0063 -0.0617 -0.3987
    1W        W36708  26.413  17.942   8.668  0.4481  0.0926  0.2650
    1W        W36709  15.539  30.131   7.383 -0.0819  0.1680  0.2288
    1W        W36710  25.128   9.379   8.761  0.2548  0.2290  0.1314
    1W        W36711   2.983  13.261   6.702 -0.1553  0.3274 -0.0928
    1W        W36712  16.919  23.286   0.454  0.0400  0.2456 -0.3607
    1W        W36713  12.106   9.874   3.025  0.1692  0.1069  0.2510
    1W        W36714  13.304  28.522   3.885 -0.1312  0.0905  0.0080
    1W        W36715  18.261  11.560   1.380 -0.1147 -0.1410  0.2758
    1W        W36716  10.310  16.160   7.697  0.2331 -0.1890 -0.3619
    1W        W36717  19.517  24.415   7.544 -0.0818  0.2330 -0.0362
    1W        W36718  17.753  12.377   0.540  0.0373 -0.3156  0.0358
    1W        W36719   2.899  26.837   1.101  0.0806  0.1680  0.0779
    1W        W36720   8.782   6.203   1.571 -0.1002 -0.0025  0.2067
    1W        W36721   9.182  27.832   3.524  0.1014  0.2327 -0.0026
    1W        W36722   4.859   4.193   2.060 -0.0506 -0.0341  0.0348
    1W        W36723   9.027   2.652   0.206 -0.1060 -0.1936 -0.1029
    1W        W36724  26.694   6.153   3.444 -0.0060  0.1939 -0.0218
    1W        W36725  10.614  26.436   2.085 -0.0707 -0.0204 -0.0496
    1W        W36726   2.214  13.395   7.032  0.0335 -0.2544  0.0484
    1W        W36727   1.146  19.349   0.068 -0.0491 -0.4767 -0.2438
    1W        W36728  10.803  29.409   1.131  0.0209 -0.1083 -0.1045
    1W        W36729  27.142   2.626   6.567 -0.1719  0.0612 -0.0959
    1W        W36730  12.965  29.044   0.967  0.0047  0.5278  0.0347
    1W        W36731  26.859   9.021   0.665 -0.0485  0.0026 -0.1033
    1W        W36732  10.012   7.712   7.163  0.0210  0.1931  0.0793
    1W        W36733  20.837  12.638   6.803 -0.0596 -0.0115 -0.0041
    1W        W36734  13.763  23.625   7.993  0.0829 -0.1007 -0.2943
    1W        W36735   4.622  10.584   1.292 -0.1580  0.0789 -0.1338
    1W        W36736   5.977   8.320   8.487  0.1165  0.1991  0.0092
    1W        W36737  13.461   4.558   3.059 -0.2647  0.0874 -0.3928
    1W        W36738  24.895   1.064   0.623  0.1031 -0.1585  0.2035
    1W        W36739  25.331  18.817   7.071 -0.2982  0.3653  0.1228
    1W        W36740   1.351  24.108   2.360 -0.2241 -0.2154  0.0209
    1W        W36741  19.513  24.060   6.545 -0.0866  0.1161  0.1667
    1W        W36742  15.178  16.697   6.891 -0.1642  0.1165 -0.0203
    1W        W36743  12.338  17.673   0.016  0.1262  0.2609 -0.2634
    1W        W36744   7.952   7.828   8.020 -0.1774  0.0560 -0.0372
    1W        W36745   8.477   2.844   7.803 -0.0300 -0.2751  0.1021
    1W        W36746  23.917   6.285   7.630 -0.1434  0.1670  0.0538
    1W        W36747  24.703  16.088   6.362  0.0406 -0.2708  0.0006
    1W        W36748  12.321   1.330   7.521  0.1247  0.0940 -0.1623
    1W        W36749   9.348  17.214   7.078  0.0910 -0.0333  0.1479
    1W        W36750   7.825  16.491   6.999 -0.0100  0.0979  0.0552
    1W        W36751  11.971  16.446   7.483  0.1367  0.1557  0.0822
    1W        W36752  29.350  19.819   1.233 -0.2120 -0.1680  0.1650
    1W        W36753  23.538  11.054   9.122 -0.0630 -0.0638  0.0126
    1W        W36754   7.523  12.278   6.798  0.1707 -0.0194 -0.0962
    1W        W36755  28.517  29.510   0.552  0.1380 -0.4655 -0.2722
    1W        W36756  15.626  13.068   1.032 -0.0075  0.2039 -0.0863
    1W        W36757   2.466  10.795   1.472 -0.2732  0.1465  0.1928
    1W        W36758  22.246   1.360   1.404  0.2132  0.2094  0.0875
    1W        W36759  11.448   5.051   9.299 -0.0607 -0.0469  0.0074
    1W        W36760  20.476   6.672   7.754  0.1233  0.1504  0.0376
    1W        W36761  26.136   2.841   6.860  0.2344  0.3468  0.0947
    1W        W36762   8.274  21.650   6.942  0.0922  0.1615 -0.1914
    1W        W36763  19.133  10.310   8.735  0.0143 -0.1541 -0.0698
    1W        W36764  29.337  23.230   0.319 -0.2686 -0.1028 -0.0790
    1W        W36765  10.826   1.374   0.881 -0.0129 -0.2822 -0.2004
    1W        W36766   9.627  20.448   1.571  0.0336  0.1386 -0.1275
    1W        W36767  24.501  18.279   6.522 -0.0380 -0.2689 -0.0959
    1W        W36768  12.824   1.351   8.191  0.0490 -0.0498 -0.2433
    1W        W36769  29.795   8.471   6.611  0.0132 -0.3170  0.1057
    1W        W36770  12.034   1.494   8.397  0.0045  0.1293 -0.0899
    1W        W36771  10.781   0.911   3.530  0.0195  0.0860 -0.0772
    1W        W36772  18.333  24.308   1.791  0.0612  0.2518  0.1416
    1W        W36773   0.663  15.720   5.224  0.0262  0.1584  0.3513
    1W        W36774  20.483  11.440   2.420 -0.1437 -0.0863 -0.2271
    1W        W36775   0.859  21.454   9.190 -0.4635 -0.0881  0.0008
    1W        W36776   2.787   2.557   8.739 -0.0262  0.0742 -0.1721
    1W        W36777   5.864  10.237   1.221 -0.0830  0.1627  0.2894
    1W        W36778  13.939  13.940   8.529 -0.0488  0.0962  0.0461
    1W        W36779  17.106  13.131   7.233 -0.1379  0.2661  0.0942
    1W        W36780  27.672   7.328   7.415 -0.1070 -0.1187  0.0376
    1W        W36781  11.686   1.262   3.022 -0.0037  0.1060  0.1426
    1W        W36782   2.695   4.210   1.823  0.0062  0.0410  0.0582
    1W        W36783  11.687  14.518   8.991 -0.1047 -0.3844  0.0783
    1W        W36784   4.905   9.585   1.011  0.0402  0.0711 -0.1399
    1W        W36785  27.279  29.846   6.393 -0.3045  0.0032 -0.1510
    1W        W36786   1.113  27.769   2.412 -0.0312 -0.1423 -0.2076
    1W        W36787  29.374   3.011   8.535  0.0302 -0.2082  0.4490
    1W        W36788   2.715  27.785   1.356  0.5780 -0.0407 -0.2357
    1W        W36789  15.119   4.519   0.239 -0.1436 -0.1203 -0.1432
    1W        W36790   5.110   8.144   7.582 -0.0686  0.1125 -0.0259
    1W        W36791  12.415   0.631   8.097  0.2941 -0.2607  0.1908
    1W        W36792  17.922  16.796   9.395  0.0006 -0.2513 -0.0823
    1W        W36793   7.390  19.198   2.611 -0.2663  0.0318 -0.0410
    1W        W36794  14.457  30.134   3.376  0.0371 -0.2266  0.0274
    1W        W36795   8.921  21.697   9.350 -0.0159  0.1765 -0.3108
    1W        W36796  27.394  10.085   0.391 -0.1422  0.1693 -0.2308
    1W        W36797  14.685   2.906   8.151 -0.3960 -0.0699 -0.1364
    1W        W36798  29.074   5.641   2.044 -0.1140 -0.1232 -0.0303
    1W        W36799   7.291  15.486   1.141  0.1278 -0.1861  0.3404
    1W        W36800   3.822  21.805   6.147 -0.1341 -0.1484 -0.0028
    1W        W36801  16.213  26.931   6.315 -0.0782  0.4639 -0.0994
    1W        W36802  17.502   3.649   0.570 -0.1790 -0.4378 -0.0720
    1W        W36803  19.198  22.560   7.343  0.0015  0.1663  0.1582
    1W        W36804  16.261  18.307   7.900 -0.1649  0.1213 -0.0786
    1W        W36805  21.437   3.039   2.381  0.0317 -0.1729  0.2711
    1W        W36806   2.709  26.324   1.026 -0.1870  0.3426  0.1196
    1W        W36807  22.806   3.102   1.035 -0.2055 -0.0838 -0.0737
    1W        W36808   0.805  26.530   7.147  0.2926  0.1266 -0.0130
    1W        W36809   1.350  13.814   8.530 -0.2109 -0.0833 -0.3019
    1W        W36810  23.114  21.733   7.092  0.1268  0.1016  0.1357
    1W        W36811   3.250  24.117   0.181  0.1723  0.0328  0.0535
    1W        W36812  23.460   6.771   0.634  0.1634  0.5265  0.1398
    1W        W36813  29.889  16.664   0.742 -0.1130  0.0609  0.2257
    1W        W36814   4.706  23.279   8.161 -0.0540 -0.0256 -0.1122
    1W        W36815   0.359  23.960   8.572  0.1822 -0.1672  0.0213
    1W        W36816   9.311  22.985   9.067 -0.0999  0.1238 -0.1153
    1W        W36817   3.222  26.449   1.113 -0.0502  0.1980 -0.2301
    1W        W36818   3.242   4.007   6.898 -0.1330  0.3251 -0.0648
    1W        W36819   7.371  11.732   8.333  0.1526 -0.1821 -0.1741
    1W        W36820  12.237  23.701   0.694 -0.0645  0.0912 -0.0436
    1W        W36821   3.799  14.936   2.513 -0.2307 -0.1102  0.1463
    1W        W36822  26.185   6.723   0.906  0.2531 -0.2531  0.1023
    1W        W36823  14.518  20.868   8.773  0.2438 -0.1773  0.1242
    1W        W36824  20.011   2.958   2.121 -0.2870  0.2394 -0.2571
    1W        W36825  21.366  19.549   7.219 -0.1065 -0.2456  0.2468
    1W        W36826  28.462  14.165   8.633 -0.1145 -0.1252  0.0406
    1W        W36827   6.001  18.745   7.238 -0.0957  0.0566  0.1984
    1W        W36828  14.384   2.117   3.320  0.1181  0.0534  0.2521
    1W        W36829  26.137  29.361   1.906  0.1008  0.0593  0.0658
    1W        W36830  15.455  21.810   1.079 -0.1033  0.0153 -0.2826
    1W        W36831  15.019  23.961   2.263 -0.0093  0.0044  0.1763
    1W        W36832  14.282   6.324   0.265  0.1513 -0.2358 -0.0223
    1W        W36833   6.913   9.952   8.512 -0.0451  0.0640 -0.3520
    1W        W36834  23.501  17.641   6.697  0.2648  0.0032 -0.3074
    1W        W36835  26.479  25.934   3.316  0.0668  0.0504 -0.0913
    1W        W36836  22.568  28.919   7.625 -0.0940  0.0297  0.1958
    1W        W36837  15.589  15.352   8.166  0.1729 -0.0535 -0.1118
    1W        W36838  15.218  12.811   1.834 -0.2367  0.1710 -0.3663
    1W        W36839  17.160  24.428   9.252  0.0498  0.0027 -0.1874
    1W        W36840   8.590  17.473   7.988  0.2794 -0.4117 -0.2058
    1W        W36841   5.346  20.675   7.406  0.1136 -0.1792 -0.2962
    1W        W36842  22.265  19.821   0.677  0.2443  0.0331  0.1295
    1W        W36843  19.614   0.936   8.888 -0.1467 -0.1478 -0.3844
    1W        W36844  28.985  19.114   5.876 -0.2150  0.0538 -0.0906
    1W        W36845  13.509  23.497   2.478  0.4699  0.0490  0.2547
    1W        W36846   8.510  23.235   1.793 -0.1982 -0.1811 -0.1726
    1W        W36847  19.616   6.915   0.155  0.0332  0.0969  0.4449
    1W        W36848  22.023  25.538   2.184 -0.2708  0.1459 -0.0564
    1W        W36849  13.105  14.975   2.457  0.2484  0.2241 -0.0375
    1W        W36850  27.812   2.889   2.403  0.1253  0.0091 -0.0801
    1W        W36851  13.261   8.302   2.653 -0.0739  0.0053  0.0386
    1W        W36852   4.790   2.079   2.889 -0.1856 -0.2604 -0.1894
    1W        W36853   9.557   4.136   0.547  0.0597 -0.1059  0.2184
    1W        W36854  28.450  10.794   1.126 -0.0254 -0.1258 -0.3043
    1W        W36855  21.384  21.787   6.705 -0.1194 -0.0700 -0.0190
    1W        W36856  20.754   5.430   8.409  0.1502 -0.5384  0.2043
    1W        W36857   5.684  21.373   9.230  0.1292 -0.0290 -0.0137
    1W        W36858   0.399  27.804   1.614 -0.1383 -0.0752  0.1393
    1W        W36859  29.052   0.913   2.330 -0.0813  0.0934 -0.2580
    1W        W36860  14.014   2.043   2.994  0.2215 -0.0675  0.0286
    1W        W36861   8.310  24.803   7.088 -0.2752  0.2770  0.0173
    1W        W36862   3.047   0.120   3.608 -0.3473  0.1785  0.1041
    1W        W36863   7.474  13.362   6.419 -0.2271  0.2879 -0.1303
    1W        W36864   8.062  13.813   8.402 -0.1496 -0.1401  0.3008
    1W        W36865  25.273  16.970   1.044 -0.0392 -0.2615 -0.2859
    1W        W36866  15.702  20.456   8.598 -0.1054  0.2941 -0.0975
    1W        W36867  16.133  11.177   1.909 -0.1076 -0.1164 -0.1193
    1W        W36868  25.409  22.992   0.283  0.0156  0.2091 -0.0831
    1W        W36869  25.503  12.602   9.067  0.1632 -0.0621 -0.0517
    1W        W36870  23.550   4.852   0.882  0.0571  0.1597  0.0267
    1W        W36871   5.182   4.759   1.405 -0.1810  0.2449  0.2601
    1W        W36872  15.803   1.136   1.312  0.0486  0.3263 -0.0741
    1W        W36873  22.753  26.083   2.608  0.1224 -0.1654  0.1606
    1W        W36874   2.361   1.292   6.658  0.2175 -0.0349 -0.1902
    1W        W36875  19.197   0.560   1.680 -0.2112 -0.2430  0.1900
    1W        W36876  30.066  14.229   1.481 -0.0895  0.0554  0.3586
    1W        W36877  21.135  26.205   2.834 -0.1126 -0.3547 -0.0991
    1W        W36878   4.199  21.746   8.712 -0.2363 -0.2980 -0.2481
    1W        W36879  24.026  25.480   2.531 -0.0461 -0.3131  0.0856
    1W        W36880  17.902  13.783   0.499  0.0512 -0.0819  0.1518
    1W        W36881   0.570  26.957   6.874 -0.0912  0.1552  0.1158
    1W        W36882   1.601  20.068   6.659 -0.0613  0.1739  0.1570
    1W        W36883  21.454   8.277   1.561 -0.4502  0.2092 -0.2736
    1W        W36884   4.971   2.059   2.182  0.0790  0.0898 -0.2431
    1W        W36885  21.397  17.963   7.498  0.0291 -0.3488  0.0015
    1W        W36886  15.725  11.133   1.425 -0.0900 -0.2020 -0.0626
    1W        W36887  14.921  20.324   2.071  0.2437 -0.2202  0.1099
    1W        W36888  29.743  21.113   5.897 -0.0668  0.1435 -0.2090
    1W        W36889  29.298   1.641   8.582  0.1319 -0.2155 -0.2120
    1W        W36890  29.144   3.953   7.192  0.0596 -0.1626 -0.4159
    1W        W36891  30.148   7.312   1.397 -0.2093  0.2567  0.0878
    1W        W36892   5.292  17.262   1.480 -0.1899 -0.3979 -0.2659
    1W        W36893  18.320   9.702   2.706  0.1198  0.0025 -0.2834
    1W        W36894  13.120  21.525   0.557 -0.1319 -0.0185 -0.0456
    1W        W36895   3.163  12.103   0.074  0.2955 -0.0380  0.1132
    1W        W36896  14.379   4.185   0.279  0.0329  0.0932  0.0891
    1W        W36897  13.240   1.254   3.490  0.0446  0.2456  0.3481
    1W        W36898   4.397   9.719   8.034 -0.1403  0.0660  0.3281
    1W        W36899  27.078  25.124   7.882 -0.0634  0.0460  0.0127
    1W        W36900  29.396  20.575   8.173 -0.2224 -0.4384 -0.3227
    1W        W36901  23.044   0.728   6.734  0.4048  0.2680 -0.4438
    1W        W36902  13.490   8.709   2.403 -0.1036 -0.1629 -0.1890
    1W        W36903   6.930   1.578   7.973 -0.0568 -0.1081 -0.1411
    1W        W36904  26.451  17.612   7.765 -0.0987 -0.0127  0.2000
    1W        W36905  28.303   0.531   6.996 -0.4927  0.1549  0.2149
    1W        W36906  23.756  29.552   2.863 -0.2069  0.0462 -0.0699
    1W        W36907  27.859  23.204   8.225 -0.1193 -0.1300  0.1324
    1W        W36908   0.151  25.304   6.773 -0.0160  0.2157  0.1852
    1W        W36909  12.629  14.803   2.458  0.5949  0.2197 -0.0057
    1W        W36910   6.670  20.779   0.992  0.0554  0.0330 -0.2382
    1W        W36911   0.076   7.259   7.882 -0.3575  0.1690 -0.1972
    1W        W36912  25.658   2.179   0.990  0.0586 -0.2830  0.2214
    1W        W36913  26.831  11.918   7.141 -0.0327 -0.0819  0.0767
    1W        W36914  10.036  23.809   0.542  0.1009  0.0104  0.0723
    1W        W36915  21.631   1.680   7.044  0.0824  0.1261  0.2181
    1W        W36916  17.622  22.205   2.424  0.0821  0.1027 -0.4340
    1W        W36917  26.505   3.119   9.077  0.2269  0.2636  0.0593
    1W        W36918   7.465  11.270   9.042  0.2177 -0.1378 -0.0307
    1W        W36919  16.158  21.941   7.008  0.2701  0.3113  0.0157
    1W        W36920  11.907  12.978   8.480 -0.0373  0.1111 -0.3548
    1W        W36921  24.827   1.185   8.839 -0.1162  0.3749  0.0070
    1W        W36922  18.131   8.624   2.252  0.1129 -0.1078  0.0377
    1W        W36923  22.594   6.367   9.096 -0.1022 -0.1274 -0.2612
    1W        W36924  17.842  23.777   0.008  0.3532 -0.0948 -0.1795
    1W        W36925   9.131   7.726   6.511 -0.2473 -0.0456 -0.3759
    1W        W36926   8.327   7.908   1.201 -0.2795 -0.1632  0.1030
    1W        W36927  29.444  25.867   1.834  0.0056 -0.1773 -0.1705
    1W        W36928  16.157  27.135   9.198  0.0897 -0.2323  0.1689
    1W        W36929  21.477  11.676   0.374 -0.1213  0.0277  0.2631
    1W        W36930   7.334  20.529   1.914  0.2752 -0.3535  0.3075
    1W        W36931  25.679  14.349   0.483 -0.2829  0.2989 -0.0778
    1W        W36932  22.795   0.592   2.763 -0.1973  0.0902 -0.0964
    1W        W36933  14.007  22.680   1.648  0.0756  0.0902 -0.0683
    1W        W36934  19.450   9.496   7.650 -0.4276  0.1878  0.0857
    1W        W36935  24.723  17.784   1.305  0.0200  0.1857  0.3444
    1W        W36936  13.506  22.119   7.694 -0.0705 -0.1261  0.0899
    1W        W36937   8.671  15.196   1.329  0.2018  0.0635 -0.1402
    1W        W36938   2.958  26.365   2.470 -0.1894  0.0912  0.2432
    1W        W36939  11.208  13.579   0.491  0.0355  0.1016 -0.0287
    1W        W36940  14.226   6.873   9.138 -0.0275  0.0468 -0.3198
    1W        W36941  22.153  25.382   8.208 -0.2528 -0.0567  0.0633
    1W        W36942  21.988  27.938   1.547 -0.0429 -0.0056  0.2262
    1W        W36943  20.983   1.161   1.108 -0.1162  0.3344 -0.1259
    1W        W36944  15.558   1.840   9.354 -0.3594  0.1805 -0.0729
    1W        W36945   0.152  16.104   7.799  0.0206  0.1284  0.2956
    1W        W36946  25.839   2.845   2.457 -0.0733  0.0115  0.1556
    1W        W36947  26.887  20.500   6.991  0.0032  0.2555  0.0110
    1W        W36948   0.327   6.087   8.971 -0.0276  0.0678  0.0531
    1W        W36949  11.143   7.937   3.205 -0.0300  0.1952  0.1462
    1W        W36950  14.258  19.353   0.665 -0.0001 -0.0544  0.1442
    1W        W36951  15.908   0.537   1.798 -0.1794 -0.2757 -0.1239
    1W        W36952  28.770  23.323   6.906 -0.3415  0.2060  0.1102
    1W        W36953   0.340   9.438   8.149  0.1090  0.1176 -0.2436
    1W        W36954  23.514  16.667   1.633 -0.0131  0.2414  0.1479
    1W        W36955  14.906  13.699   8.382  0.0476  0.3070  0.3233
    1W        W36956  13.265  16.676   1.593  0.3386 -0.2123  0.2242
    1W        W36957  29.923  27.165   9.018  0.1558 -0.0264  0.0868
    1W        W36958   5.154  28.932   0.142 -0.0315  0.1827 -0.1257
    1W        W36959  26.320  18.012   5.983  0.1445 -0.0086 -0.0559
    1W        W36960   3.831   8.481   1.077  0.2606  0.1997 -0.0018
    1W        W36961  13.318  11.693   2.607  0.0883 -0.2320  0.2145
    1W        W36962   4.166  10.306   1.123  0.0581 -0.2617 -0.0728
    1W        W36963  17.172  25.630   1.106 -0.1751  0.1148 -0.0207
    1W        W36964   9.049   6.907   9.121 -0.2295  0.2720 -0.1341
    1W        W36965  15.529  24.723   8.986  0.1418 -0.1914 -0.1272
    1W        W36966   1.944  19.183   5.597  0.0333 -0.3376 -0.0030
    1W        W36967  18.784  12.020   6.811  0.0247 -0.0744 -0.1324
    1W        W36968  11.205  12.003   1.517 -0.0206 -0.2324 -0.1040
    1W        W36969  26.874  13.147   8.089  0.1763  0.3691 -0.1488
    1W        W36970  12.641  28.702   9.279 -0.0266 -0.1081 -0.1526
    1W        W36971   5.944  20.088   7.564  0.1670  0.1730 -0.0524
    1W        W36972  16.309  14.773   0.563  0.0963  0.4503 -0.2877
    1W        W36973   6.851  11.021   1.470  0.0804 -0.1738  0.1111
    1W        W36974   3.975  15.607   7.137  0.0125 -0.2076  0.0886
    1W        W36975  24.980   3.229   1.838  0.3109 -0.0806  0.3398
    1W        W36976   3.236  17.876   7.055  0.0417 -0.0083 -0.1682
    1W        W36977  22.002   8.592   2.073 -0.0416  0.1323  0.1319
    1W        W36978  28.681  13.594   8.060 -0.1634  0.0154 -0.1417
    1W        W36979  10.280  19.141   8.985  0.2458 -0.0450 -0.0037
    1W        W36980   3.183   1.941   1.276 -0.0523 -0.3591  0.0317
    1W        W36981   9.372  29.370   2.080 -0.2093 -0.2406 -0.1745
    1W        W36982   0.457  19.361   8.754 -0.0870 -0.0045 -0.0864
    1W        W36983  13.507   5.255   3.104  0.0890  0.2808 -0.1028
    1W        W36984   6.301  10.906   2.617 -0.0612  0.2411 -0.0352
    1W        W36985  19.683  26.007   9.097  0.0806 -0.3571  0.0340
    1W        W36986   7.901  28.850   2.606 -0.0679 -0.1626 -0.1503
    1W        W36987  12.664   4.325   8.653  0.1501 -0.3482  0.0753
    1W        W36988   2.529  19.633   7.765 -0.2370  0.1884  0.1323
    1W        W36989  14.364  29.797   0.414  0.0431  0.0217  0.0043
    1W        W36990   7.619  20.215   7.393  0.2131  0.1811 -0.0575
    1W        W36991  22.665  10.977   7.633  0.0204 -0.2404  0.1562
    1W        W36992   5.491   5.409   8.834 -0.0526  0.0152 -0.2534
    1W        W36993   1.494   3.103   0.082  0.2064 -0.1344 -0.0805
    1W        W36994  18.156  19.446   6.924 -0.3275 -0.2419  0.1828
    1W        W36995   7.660   2.587   3.465  0.0601  0.1444  0.2485
    1W        W36996  27.842  13.940   8.986  0.1271 -0.0490  0.5005
    1W        W36997  18.778  22.258   7.100 -0.0990 -0.0119  0.1472
    1W        W36998   7.669  10.455   7.391  0.2957  0.3731 -0.0218
    1W        W36999  11.602   8.246   7.143 -0.1428 -0.2048 -0.2893
    1W        W37000  10.484  22.517   2.540  0.1488 -0.0481 -0.1487
    1W        W37001  17.138  24.283   2.261 -0.0775  0.2083  0.0419
    1W        W37002  28.587  10.789   1.898 -0.1449  0.0381 -0.0626
    1W        W37003  27.901  18.546   9.373 -0.1279  0.0373  0.1775
    1W        W37004  12.195  17.417   1.464 -0.0424  0.2017  0.1070
    1W        W37005  26.834  22.710   6.242 -0.0497  0.0613  0.1076
    1W        W37006  26.879   4.489   6.873 -0.1765  0.0616  0.1427
    1W        W37007  19.756  23.526   2.501 -0.1302 -0.0122  0.1128
    1W        W37008  19.459   2.909   2.972  0.0387  0.0357 -0.0607
    1W        W37009  19.489  28.026   1.429 -0.0981 -0.1993  0.2785
    1W        W37010  19.778   7.881   2.399 -0.3527  0.0712  0.0012
    1W        W37011  10.330  22.800   1.805 -0.1735  0.2956 -0.0148
    1W        W37012  18.758  29.865   1.009 -0.1805  0.3198 -0.0190
    1W        W37013  25.068  29.573   3.314  0.0437 -0.2927  0.2022
    1W        W37014  20.954  14.866   1.136 -0.5150  0.1412 -0.0480
    1W        W37015  10.538  11.716   3.112 -0.0215  0.1459 -0.1515
    1W        W37016  21.162  14.509   1.596 -0.1489 -0.0401 -0.2254
    1W        W37017  21.592  21.672   8.526  0.1937 -0.1612  0.0057
    1W        W37018   4.265  12.801   0.263 -0.1805  0.1977  0.0476
    1W        W37019   4.755   0.002   8.963  0.1353  0.1010 -0.1264
    1W        W37020  10.595   6.866   1.022  0.3313 -0.0265  0.4859
    1W        W37021   7.132   7.711   2.567  0.2352  0.0876 -0.2119
    1W        W37022   8.891  21.592   6.523 -0.0742  0.0184 -0.3656
    1W        W37023   7.107   5.731   1.149  0.6648 -0.0552 -0.3377
    1W        W37024  12.312   2.974   9.293  0.1634  0.0873 -0.1124
    1W        W37025  13.014  27.810   1.512  0.1229  0.2431 -0.2878
    1W        W37026   9.062  18.122   7.430  0.2281 -0.0243 -0.3287
    1W        W37027  17.429  22.074   1.465  0.1262 -0.0104  0.0688
    1W        W37028  19.123   3.764   2.831 -0.2169 -0.0290  0.0077
    1W        W37029  26.975  13.077   1.424 -0.0127 -0.0914 -0.2187
    1W        W37030   4.927   5.258   9.401 -0.2818  0.2568 -0.0595
    1W        W37031  18.438  23.055   6.743  0.0514 -0.3238  0.0682
    1W        W37032  12.228  27.906   6.928  0.2631 -0.1605  0.2136
    1W        W37033  13.447   5.590   9.307 -0.3415  0.4561  0.1286
    1W        W37034   4.628   7.875   2.958 -0.1108  0.1818 -0.0005
    1W        W37035  25.713  14.145   7.698 -0.2628 -0.1684  0.3172
    1W        W37036  25.208  24.083   0.205 -0.0771 -0.1336 -0.1306
    1W        W37037   1.260   4.525   1.437 -0.2523 -0.2201  0.3874
    1W        W37038  10.290  10.031   2.562 -0.1688  0.3364  0.2821
    1W        W37039  20.733  17.808   1.080  0.1100  0.1973 -0.0361
    1W        W37040   0.750   7.753   8.975 -0.0595  0.0063  0.0300
    1W        W37041   7.137   8.211   1.340  0.0750 -0.2559 -0.0985
    1W        W37042  14.575  24.487   6.898  0.2300 -0.2716 -0.2553
    1W        W37043  16.784  29.487   8.000  0.1975 -0.0321  0.0956
    1W        W37044  20.564   3.604   0.307 -0.2123 -0.3091 -0.1704
    1W        W37045  13.762  19.245   0.767 -0.1372  0.4050 -0.3938
    1W        W37046  20.626  17.729   2.048  0.1917 -0.1033 -0.1934
    1W        W37047  22.735   3.494   2.338  0.2482  0.2987  0.1785
    1W        W37048  15.094  21.010   0.341  0.0044 -0.1205 -0.1261
    1W        W37049  26.583  20.062   6.362  0.3945 -0.0734 -0.1130
    1W        W37050   3.999   2.856   6.643  0.0027 -0.0607  0.0548
    1W        W37051  21.008  19.183   6.856 -0.2968 -0.1855  0.0135
    1W        W37052   8.886   2.060   7.631  0.2942  0.5499 -0.2405
    1W        W37053  25.648   3.375   0.344  0.0920  0.0641 -0.0802
    1W        W37054   8.114  27.743   2.420 -0.3587  0.0594 -0.0679
    1W        W37055  29.632   1.556   0.011 -0.0915 -0.5042  0.0164
    1W        W37056   7.148  11.212   7.558 -0.2156  0.1653 -0.0100
    1W        W37057  22.323   9.348   7.295 -0.0784 -0.3729 -0.0372
    1W        W37058  21.114   9.791   7.368 -0.0760 -0.0039  0.1298
    1W        W37059   3.382   4.821   8.471 -0.2825  0.2283  0.0511
    1W        W37060  29.371  19.627   5.711  0.3503 -0.0539  0.1752
    1W        W37061   8.514   8.258   8.494  0.1769  0.2285 -0.1173
    1W        W37062   6.714  18.385   7.955 -0.0526  0.0321  0.1234
    1W        W37063   8.634  21.907   7.202  0.0459 -0.0761  0.0602
    1W        W37064  29.910  21.662   6.178  0.1459  0.3123 -0.0467
    1W        W37065   3.749  24.071   5.427  0.0273 -0.1093  0.0908
    1W        W37066  26.584  22.065   9.171  0.1352  0.3597 -0.2718
    1W        W37067  17.834  28.838   8.178  0.1190  0.0055  0.0406
    1W        W37068   9.498  24.111   8.877 -0.3748 -0.2603  0.1385
    1W        W37069  24.184  17.065   6.687 -0.5688 -0.3331 -0.0359
    1W        W37070  24.997  14.762   1.308  0.2557  0.0587 -0.1300
    1W        W37071  12.193   9.938   8.677 -0.2034  0.1203 -0.1484
    1W        W37072   4.996  22.600   6.751  0.0289 -0.3983  0.1141
    1W        W37073   2.918  15.730   8.935  0.2693  0.0835 -0.3020
    1W        W37074   3.182  12.874   8.686 -0.0305  0.1307 -0.1131
    1W        W37075  11.943   0.825   7.915  0.0544  0.1904  0.2210
    1W        W37076  28.851  28.107   7.200  0.1991  0.1597 -0.3759
    1W        W37077  24.227  20.895   2.442  0.1206 -0.1513 -0.0678
    1W        W37078   2.002  10.729   9.089  0.0899  0.2031  0.1933
    1W        W37079  22.151   4.553   9.198  0.0381 -0.4470  0.0037
    1W        W37080   6.026  12.531   1.901  0.0539 -0.3004  0.1824
    1W        W37081  11.649  25.258   8.383  0.0303 -0.0504 -0.1627
    1W        W37082   8.923   9.835   2.633 -0.2005  0.3332 -0.1263
    1W        W37083  27.286  12.671   8.384 -0.0712  0.2135 -0.0575
    1W        W37084  20.946  24.720   7.784  0.2701  0.0380 -0.1193
    1W        W37085  17.045  10.766   7.672 -0.0266  0.1321  0.0336
    1W        W37086   2.478  27.381   9.298  0.0346 -0.3370  0.0998
    1W        W37087  17.172   1.994   0.129 -0.0835  0.4157 -0.0608
    1W        W37088   0.361  20.694   6.967 -0.0451 -0.0684 -0.5379
    1W        W37089  21.671   1.360   8.392 -0.3007  0.2450  0.5010
    1W        W37090  23.969  14.741   1.543 -0.2119  0.0367  0.1291
    1W        W37091   9.870  25.055   7.320  0.2748  0.0573 -0.1616
    1W        W37092  29.466  17.182   7.039  0.3832  0.1697 -0.0672
    1W        W37093  20.362  20.311   8.667 -0.4029 -0.0786  0.2365
    1W        W37094  29.747  16.058   9.398  0.3011  0.1339 -0.2471
    1W        W37095   1.202  13.476   1.355 -0.0004  0.0547  0.1578
    1W        W37096   3.761  20.359   7.992  0.1368  0.1448  0.1689
    1W        W37097  17.014  17.180   1.622  0.0962 -0.0260 -0.0841
    1W        W37098   6.245  13.936   2.758 -0.1125 -0.0399 -0.0223
    1W        W37099  29.882  18.564   6.694 -0.4270  0.2071 -0.1092
    1W        W37100  29.581  19.345   0.179  0.0928  0.1286  0.2497
    1W        W37101   2.273  24.810   1.729  0.1521 -0.1209 -0.0006
    1W        W37102   6.890   8.930   2.592  0.2360  0.3368  0.2106
    1W        W37103   6.093  28.595   2.307  0.0637  0.0351  0.2230
    1W        W37104   9.755   3.139   9.351 -0.0431  0.5087  0.2443
    1W        W37105  20.859  18.864   7.360 -0.0086 -0.0433  0.1442
    1W        W37106  14.669  24.705   2.690  0.1514 -0.3698  0.1932
    1W        W37107  14.954  16.476   8.832  0.0753 -0.0089 -0.1843
    1W        W37108  21.465  15.166   0.844 -0.4723 -0.1800  0.2252
    1W        W37109   5.461   5.168   7.783  0.0917 -0.1288  0.0380
    1W        W37110  21.816  22.130   7.109  0.0986 -0.3615  0.0264
    1W        W37111  27.707   8.659   0.465 -0.0591  0.0186 -0.2062
    1W        W37112  25.459  11.828   6.665  0.1359  0.0604  0.0335
    1W        W37113  29.626   6.431   2.000  0.0430 -0.0188  0.0894
    1W        W37114   7.634  28.894   0.112 -0.3117  0.1606  0.1006
    1W        W37115  12.815   1.299   0.548 -0.0007 -0.2135 -0.0277
    1W        W37116   2.299  12.288   9.138 -0.1000  0.0221  0.4623
    1W        W37117  27.173  22.232   2.706 -0.0109 -0.0239  0.2033
    1W        W37118  11.557   7.329   8.817 -0.0912  0.2398  0.3942
    1W        W37119   8.159  27.041   7.032 -0.0179  0.0468 -0.0691
    1W        W37120  15.790  23.436   8.516  0.1184  0.2844 -0.0629
    1W        W37121  19.214  26.125   9.338 -0.2329  0.3948  0.1543
    1W        W37122  20.505   6.957   1.868 -0.1199 -0.1855 -0.3676
    1W        W37123  27.994   0.755   7.582  0.0452  0.0939 -0.1537
    1W        W37124   8.489  12.763   8.259 -0.1315  0.2193 -0.1387
    1W        W37125  17.778  18.850   8.879  0.0309 -0.0012  0.1788
    1W        W37126   1.548  23.484   7.903  0.2104 -0.1259  0.2286
    1W        W37127  20.376  23.870   1.460 -0.0180  0.0578 -0.1561
    1W        W37128  23.816  10.682   8.292  0.1109  0.2121  0.0297
    1W        W37129  29.061  21.879   1.671 -0.0317 -0.0796 -0.0276
    1W        W37130   3.372  17.148   6.066 -0.5724 -0.0583 -0.0694
    1W        W37131   1.336   3.614   0.012  0.0814  0.2126 -0.0604
    1W        W37132   3.587  13.136   8.533  0.1685 -0.2568 -0.2165
    1W        W37133  29.406  28.522   0.803  0.2723 -0.2968  0.1470
    1W        W37134  27.076   1.693   7.761  0.4387  0.2048 -0.0206
    1W        W37135  23.433  11.458   7.560  0.1077 -0.1341 -0.0517
    1W        W37136  22.263  20.183   6.871 -0.3036  0.1654  0.1068
    1W        W37137  27.376  16.301   1.318  0.0629  0.1558  0.3196
    1W        W37138  29.810  19.677   2.098 -0.0593 -0.1464 -0.1542
    1W        W37139  21.519  16.634   6.031 -0.2048  0.1823  0.0712
    1W        W37140  29.704  19.129   9.118 -0.0434  0.0143  0.3739
    1W        W37141  24.093  12.207   6.780  0.1843 -0.1542  0.0014
    1W        W37142  21.682  24.913   1.045 -0.1934 -0.1065  0.3677
    1W        W37143   7.449   8.609   7.694 -0.0228 -0.0663  0.0220
    1W        W37144  23.014   7.126   1.647  0.0150  0.2735 -0.1145
    1W        W37145   8.404  27.698   2.872 -0.3084 -0.0309 -0.3381
    1W        W37146  23.097  12.248   6.947 -0.2087  0.0311 -0.0199
    1W        W37147   6.685  25.056   6.090 -0.1273 -0.0853  0.1947
    1W        W37148  26.541  11.508   7.459  0.0210  0.1904 -0.0205
    1W        W37149   0.473   9.046   1.829 -0.0258  0.1030 -0.6760
    1W        W37150  16.631  12.570   1.313  0.0809 -0.1102  0.1607
    1W        W37151  12.557  19.331   0.135 -0.0015  0.2459  0.3642
    1W        W37152  28.376  24.010   8.058  0.0051  0.1120 -0.4587
    1W        W37153  21.401  11.385   0.761  0.0453 -0.0769 -0.0894
    1W        W37154   0.206   2.555   6.996  0.2194 -0.2043  0.4010
    1W        W37155  14.065  20.192   0.719  0.1570 -0.2086  0.2537
    1W        W37156  29.955  16.830   5.106 -0.0076  0.2214 -0.0707
    1W        W37157  29.264  25.681   0.877  0.0614  0.1493 -0.1023
    1W        W37158  27.385  11.422   7.788  0.3659  0.2393  0.3085
    1W        W37159  19.255   1.199   1.766 -0.0256  0.0457 -0.1787
    1W        W37160   2.265  29.403   2.274 -0.3220  0.0424  0.1255
    1W        W37161   3.115  17.930   8.272  0.4710 -0.0588 -0.1154
    1W        W37162  24.479  20.701   0.970  0.0283  0.2856 -0.1421
    1W        W37163  16.297  28.398   8.532  0.3263 -0.1495 -0.3239
    1W        W37164  26.012  22.219   1.384 -0.2783  0.1814 -0.2057
    1W        W37165  26.739  10.622   7.196 -0.3114 -0.1427  0.0504
    1W        W37166  26.392   8.688   0.686 -0.1474  0.2046 -0.0610
    1W        W37167   1.084   6.023   0.172 -0.2241  0.1402 -0.1195
    1W        W37168  21.456   8.855   8.546  0.2030  0.3234 -0.2536
    1W        W37169   6.636  12.384   7.951 -0.1270  0.2108  0.3394
    1W        W37170  15.292  19.239   0.454  0.2379 -0.3226  0.2407
    1W        W37171  25.822   7.427   8.375 -0.1087  0.0553 -0.0389
    1W        W37172  25.547  20.304   8.969 -0.4089 -0.1065  0.1810
    1W        W37173  14.855   2.645   2.504  0.0365  0.0063  0.0926
    1W        W37174  20.352   5.896   8.367  0.1135 -0.0821 -0.2547
    1W        W37175   1.282   0.565   7.180 -0.0534  0.1828  0.2699
    1W        W37176  20.344  15.947   7.053  0.0885  0.1451  0.2307
    1W        W37177  28.579  24.097   2.449 -0.0465  0.0070 -0.1722
    1W        W37178   0.322  13.746   0.024  0.3553  0.1664  0.1021
    1W        W37179   8.757   6.816   2.497 -0.0980 -0.0738  0.1112
    1W        W37180  18.065  22.339   9.013 -0.1032  0.1595  0.0754
    1W        W37181   2.331  18.087   6.574  0.0018  0.1459  0.2924
    1W        W37182   4.520  21.777   9.353  0.1259 -0.0930 -0.0141
    1W        W37183  11.307   4.522   2.962 -0.2131 -0.1897  0.0204
    1W        W37184  13.593  20.955   9.300 -0.0573  0.1793 -0.1711
    1W        W37185  18.348  29.262   6.795  0.1250 -0.3339  0.2663
    1W        W37186  24.845   0.500   0.160 -0.0667 -0.2684  0.2018
    1W        W37187   6.248  12.953   8.639  0.1533  0.0442 -0.0909
    1W        W37188  13.915   2.269   1.505 -0.1259 -0.0438  0.2392
    1W        W37189  27.714  18.609   8.883  0.0862  0.1831 -0.3106
    1W        W37190   1.595  13.306   0.392  0.0972 -0.0584  0.0305
    1W        W37191  16.790  15.490   7.028 -0.0521 -0.1559  0.0674
    1W        W37192  18.613   6.552   7.894  0.0822 -0.0089 -0.1636
    1W        W37193   4.937   3.602   3.428  0.0726  0.3176 -0.0249
    1W        W37194  12.308  21.604   7.101 -0.0114 -0.0292  0.0996
    1W        W37195  24.110  17.803   7.155 -0.1606  0.2045 -0.0607
    1W        W37196  18.986  11.413   8.004  0.1333  0.1093  0.0706
    1W        W37197   9.659  29.874   7.914  0.0952  0.1137  0.2082
    1W        W37198  27.658   3.850   9.100  0.0921 -0.2908 -0.0297
    1W        W37199  24.218   1.679   8.363 -0.3164 -0.0916 -0.2960
    1W        W37200  16.054  13.318   0.798  0.0688  0.0001  0.1916
    1W        W37201   1.494  22.172   8.175 -0.0539  0.0294  0.0948
    1W        W37202  21.677   6.181   7.984 -0.1316  0.1300  0.2047
    1W        W37203   6.155  23.658   6.577  0.1210 -0.1753 -0.2864
    1W        W37204   6.370  29.776   8.393  0.1069  0.2388  0.1529
    1W        W37205   5.050   2.820   8.270  0.4389 -0.0431 -0.1129
    1W        W37206  19.221  25.772   8.774  0.1806 -0.0369 -0.2328
    1W        W37207  10.311  26.050   2.117 -0.2939  0.0574 -0.0082
    1W        W37208  22.446  10.473   6.802 -0.0747 -0.0893  0.0759
    1W        W37209  16.286   1.131   2.512 -0.3354 -0.0753  0.1710
    1W        W37210  16.704  19.813   7.661 -0.4351  0.3837  0.0167
    1W        W37211   0.304   2.864   1.690 -0.1412  0.3035 -0.2130
    1W        W37212  18.001  13.704   9.323  0.1150 -0.2488  0.1626
    1W        W37213  22.173   0.525   2.413 -0.2253 -0.0562 -0.0693
    1W        W37214   1.296  17.409   0.765 -0.0884  0.0185 -0.2056
    1W        W37215  10.337  19.103   6.617 -0.5130  0.0015 -0.1826
    1W        W37216   5.417  11.428   1.095 -0.0168  0.0800  0.1328
    1W        W37217   8.732  13.366   0.987 -0.0713 -0.1960 -0.2029
    1W        W37218   3.383  17.645   7.994  0.0261 -0.0417  0.1029
    1W        W37219   7.075   3.318   8.673 -0.0199 -0.2582  0.2052
    1W        W37220   5.412  12.070   8.565  0.0620  0.3240  0.0975
    1W        W37221  16.247  24.742   8.991  0.0492  0.0709 -0.0441
    1W        W37222  20.634   4.470   3.231  0.2905 -0.0730 -0.0696
    1W        W37223  27.783   3.171   8.321  0.4152 -0.0315 -0.0986
    1W        W37224  13.504   2.219   7.989  0.4996 -0.1481  0.2409
    1W        W37225   9.049  29.297   7.936 -0.4028  0.1366  0.1256
    1W        W37226  25.940   3.176   7.709  0.1314 -0.0718  0.2050
    1W        W37227  17.491   4.758   2.381 -0.1785  0.5737  0.0249
    1W        W37228  27.142   4.812   1.462 -0.0100 -0.0982  0.0090
    1W        W37229   5.971   0.189   7.459  0.0874 -0.2186 -0.1744
    1W        W37230  10.967  28.258   2.286  0.0232  0.0147 -0.0785
    1W        W37231  17.765  23.670   1.729  0.1174 -0.2208  0.1879
    1W        W37232   9.943  21.499   6.635 -0.0264 -0.0096  0.0486
    1W        W37233  30.136  11.087   8.912 -0.0496 -0.0073 -0.1724
    1W        W37234  21.955  22.283   8.094 -0.3404  0.1037  0.0159
    1W        W37235  25.626  25.370   7.768 -0.0179  0.0589  0.2672
    1W        W37236   9.724  25.531   9.225 -0.0778  0.3432 -0.2266
    1W        W37237  11.170  24.055   8.189  0.3177 -0.0113 -0.2110
    1W        W37238   8.918  14.052   9.175 -0.0074  0.2019 -0.0036
    1W        W37239  13.925  14.028   2.102 -0.4912 -0.2442 -0.1887
    1W        W37240  15.409  21.435   2.158  0.1364 -0.1715  0.1469
    1W        W37241  25.824  26.723   7.675  0.1038  0.0751  0.3864
    1W        W37242  28.487   2.237   7.852  0.1609  0.0904 -0.2902
    1W        W37243   2.071  29.087   3.281 -0.1551  0.3152  0.0751
    1W        W37244   4.567  16.901   6.688  0.0743  0.1952 -0.1627
    1W        W37245   5.355   9.380   1.818 -0.1699  0.0660  0.0276
    1W        W37246  13.102  14.073   1.981 -0.1958  0.1126  0.1627
    1W        W37247  20.249  12.480   0.991  0.0153  0.0712 -0.5202
    1W        W37248  20.658  10.170   0.617  0.1445 -0.0024  0.0893
    1W        W37249  28.709  14.021   7.360 -0.1254  0.2772 -0.0603
    1W        W37250  19.837   8.355   8.672  0.0792 -0.0659  0.2080
    1W        W37251  19.643   0.029   1.047 -0.0675 -0.0447 -0.0970
    1W        W37252  28.112  19.933   6.230  0.2356 -0.3796 -0.0466
    1W        W37253   4.084   4.851   7.764 -0.1747 -0.1073  0.2169
    1W        W37254  10.515   3.455   9.008 -0.0170 -0.1438  0.0033
    1W        W37255   6.245  28.333   0.552 -0.0932  0.1458  0.0239
    1W        W37256   9.626  29.162   3.316 -0.0414 -0.1137 -0.2880
    1W        W37257  25.484  10.036   7.054  0.0714  0.0821 -0.0292
    1W        W37258   9.825  20.756   8.428 -0.0284  0.0653 -0.1549
    1W        W37259  20.459  24.782   1.417  0.1486 -0.1828 -0.2115
    1W        W37260  28.060  17.225   0.857 -0.1256 -0.1225  0.2520
    1W        W37261  29.155  24.572   8.439  0.1414  0.2136  0.0980
    1W        W37262  20.050  12.705   7.078  0.1878  0.2774 -0.2780
    1W        W37263  29.554  28.374   1.369 -0.1132  0.0332 -0.1377
    1W        W37264   5.781  18.810   0.166  0.0904 -0.0282  0.1043
    1W        W37265   2.703  18.982   8.938 -0.0245  0.2601 -0.3215
    1W        W37266  19.102   9.420   9.385 -0.1077 -0.0770  0.0708
    1W        W37267   1.488  22.060   6.457 -0.1314 -0.1624  0.1586
    1W        W37268   0.572  14.214   7.969 -0.1804 -0.0576  0.2680
    1W        W37269   7.016   2.265   2.802  0.2865  0.1454  0.0542
    1W        W37270  27.980   1.804   7.291 -0.0702  0.0710  0.0356
    1W        W37271   9.634  26.699   2.136  0.2441 -0.0953 -0.1942
    1W        W37272   0.025   9.663   0.003  0.1450 -0.0735  0.1968
    1W        W37273  20.339   0.339   8.233  0.0646 -0.3958  0.0456
    1W        W37274  24.303  18.869   1.600 -0.1288 -0.0307 -0.0820
    1W        W37275  25.004  23.695   6.844  0.1576  0.1120 -0.1424
    1W        W37276  18.559  10.723   1.260 -0.0193  0.1146  0.3022
    1W        W37277  13.206  26.650   8.500  0.2046 -0.0274 -0.0174
    1W        W37278   9.392  18.591   0.488 -0.0002  0.0098 -0.2011
    1W        W37279  25.488  28.710   2.332 -0.0594  0.2699 -0.0101
    1W        W37280   4.283  24.087   8.180  0.0531  0.0877 -0.2885
    1W        W37281   2.036  17.097   6.348 -0.1626 -0.1557  0.2620
    1W        W37282  14.777  24.807   7.755 -0.1040 -0.3065  0.1027
    1W        W37283  20.581  16.043   8.738 -0.1602  0.2006 -0.2064
    1W        W37284  29.330   9.830   8.018  0.0250  0.3125  0.0651
    1W        W37285  22.163   9.052   2.027  0.1100 -0.2690 -0.4134
    1W        W37286   4.720  29.296   2.258 -0.1980 -0.1197 -0.3317
    1W        W37287  18.248   4.626   7.205 -0.0329  0.0311 -0.3266
    1W        W37288   4.468  26.575   1.981 -0.1241  0.1761  0.1188
    1W        W37289   9.778  20.680   2.873 -0.1587 -0.0362 -0.2170
    1W        W37290  29.789  19.764   0.537 -0.0695 -0.0715  0.0177
    1W        W37291  27.320   2.958   7.555 -0.2295 -0.0583 -0.0054
    1W        W37292  21.006  27.680   7.308  0.1281 -0.0282  0.0076
    1W        W37293   2.727   1.826   1.257  0.0458  0.0294  0.0993
    1W        W37294   3.051  22.267   5.679 -0.2211 -0.0324 -0.2677
    1W        W37295  26.421  24.902   0.761  0.0789  0.2077 -0.2222
    1W        W37296   9.807  14.165   7.999 -0.2090 -0.0790  0.2445
    1W        W37297   8.210  12.426   9.162 -0.0525 -0.1330  0.2483
    1W        W37298   5.571  25.385   0.766 -0.1561  0.2227  0.2699
    1W        W37299   5.072  13.299   1.578 -0.1815 -0.0209  0.1376
    1W        W37300  26.613   5.077   3.106  0.1863  0.0938  0.2462
    1W        W37301  19.247   2.994   0.708  0.0076 -0.1120 -0.3083
    1W        W37302  13.330   6.245   8.663  0.1567 -0.0368 -0.0005
    1W        W37303  13.290  28.836   7.572 -0.1342  0.1000 -0.0709
    1W        W37304  21.323   5.573   8.165  0.3199  0.0554  0.0090
    1W        W37305   5.347  29.235   8.709  0.0035  0.1756  0.0308
    1W        W37306   2.686   8.251   2.788 -0.1020 -0.0089 -0.1037
    1W        W37307  23.044  11.990   2.806 -0.2162 -0.1628 -0.0912
    1W        W37308  14.541  15.755   0.493 -0.0809  0.2151 -0.1296
    1W        W37309   4.103  12.191   1.312  0.1455 -0.2416 -0.0702
    1W        W37310   4.464   0.711   7.253  0.2598 -0.1006 -0.1334
    1W        W37311  25.377  15.061   1.751  0.0019 -0.1710  0.0311
    1W        W37312   1.376   8.399   1.767  0.2550  0.0734  0.2511
    1W        W37313   7.096  14.903   0.374  0.2134 -0.0536 -0.0290
    1W        W37314   6.897  28.189   1.951  0.0928  0.2000 -0.0997
    1W        W37315   7.245  29.448   2.464  0.0222 -0.2090  0.0042
    1W        W37316  26.371   5.714   8.572  0.0959 -0.1139  0.2313
    1W        W37317   7.993   1.775   3.537 -0.1258  0.0646 -0.0643
    1W        W37318  25.176   4.337   1.681  0.2875  0.2612 -0.0528
    1W        W37319  28.700   2.388   0.775 -0.0190  0.2737 -0.1986
    1W        W37320   9.336  17.103   1.318 -0.0613  0.2113 -0.0272
    1W        W37321   3.776  17.892   7.756  0.1438 -0.1439  0.1200
    1W        W37322  29.979   5.015   9.164  0.0277 -0.5164 -0.1973
    1W        W37323   7.391   0.103   6.882  0.3215  0.1977 -0.2391
    1W        W37324  25.791   1.678   0.683 -0.1137  0.0192 -0.3835
    1W        W37325  17.858   2.638   1.752  0.2499  0.3374 -0.0406
    1W        W37326  23.250  25.450   8.220 -0.0030 -0.2644 -0.0885
    1W        W37327  25.018   2.056   8.040  0.0534  0.1391 -0.2877
    1W        W37328  24.150  18.699   8.474  0.0205 -0.1047  0.0590
    1W        W37329  14.848   9.007   0.899 -0.0546 -0.2949 -0.2679
    1W        W37330   5.978   8.198   4.141 -0.0268 -0.2413 -0.0984
    1W        W37331   0.797  19.044   0.115 -0.2211  0.2217 -0.0153
    1W        W37332  15.074   3.527   7.001  0.1924  0.1286  0.1888
    1W        W37333   6.042  23.519   7.728  0.1622  0.0129 -0.0342
    1W        W37334  29.190  28.946   7.390 -0.2994 -0.0181 -0.0200
    1W        W37335   6.605   4.449   1.140  0.1554  0.1322 -0.1822
    1W        W37336  21.187   8.545   9.006 -0.0611  0.0392  0.5468
    1W        W37337   2.872   0.492   2.051 -0.2361 -0.1552  0.3088
    1W        W37338  28.576  16.774   8.169  0.1809 -0.1670  0.2099
    1W        W37339  15.359   4.344   2.029  0.1315 -0.0772  0.0860
    1W        W37340  18.184  16.500   7.468  0.1297  0.1798 -0.1422
    1W        W37341  15.223   2.289   3.374  0.0691  0.0669 -0.0028
    1W        W37342  23.025  14.737   0.915  0.0396 -0.1778 -0.3460
    1W        W37343   1.468  25.810   9.376 -0.0895 -0.3424 -0.2291
    1W        W37344  24.591   9.441   8.325  0.0205 -0.0290 -0.0901
    1W        W37345  26.214  19.106   0.215 -0.2122  0.0319  0.0734
    1W        W37346  26.755   8.987   1.835 -0.2651  0.0347  0.0656
    1W        W37347  11.351  20.650   8.047 -0.3461  0.0696  0.1326
    1W        W37348  16.577  29.486   0.817  0.0706  0.1717 -0.0476
    1W        W37349  16.797  25.153   2.871 -0.0055  0.2473  0.0105
    1W        W37350  23.921   3.426   8.254 -0.2234 -0.1424  0.2031
    1W        W37351  14.340  14.449   0.975 -0.0685 -0.2451  0.1236
    1W        W37352  13.843  14.231   7.378  0.0638 -0.0658  0.4514
    1W        W37353   8.744  18.317   6.983  0.0121  0.0230  0.1506
    1W        W37354   6.956  19.612   8.983 -0.0259  0.2729 -0.1463
    1W        W37355  10.982  25.054   2.911 -0.2606  0.0306  0.2641
    1W        W37356   1.188   3.072   1.228 -0.0158  0.1032 -0.2594
    1W        W37357   6.557  22.149   8.190  0.2512  0.0864  0.0212
    1W        W37358   9.803  27.754   2.359 -0.0060 -0.0946 -0.1632
    1W        W37359  19.839  25.172   9.013 -0.2874 -0.0094 -0.1806
    1W        W37360  10.468  21.970   1.263  0.0506 -0.0047 -0.3621
    1W        W37361  24.358  27.217   7.780  0.0208  0.1591  0.0875
    1W        W37362  25.901  23.453   7.216  0.0959 -0.3601  0.1984
    1W        W37363   5.067  16.920   9.135  0.1342  0.1561 -0.1925
    1W        W37364  15.337  27.906   2.412 -0.0366  0.3685 -0.0325
    1W        W37365  24.145  17.911   0.242 -0.0204  0.3894  0.0358
    1W        W37366  26.653  21.244   8.623  0.0309  0.1107  0.0067
    1W        W37367  13.945  15.416   7.717  0.0330 -0.0201  0.1548
    1W        W37368  25.359  17.839   7.611  0.3788 -0.2827  0.0572
    1W        W37369   8.957   1.288   1.452 -0.0235  0.1033 -0.0041
    1W        W37370   1.637   7.345   2.784  0.0742  0.0298 -0.2122
    1W        W37371  12.475  16.802   8.977  0.5055 -0.3051  0.1787
    1W        W37372   8.390  15.968   9.325  0.0137  0.1317 -0.4437
    1W        W37373   9.089  21.073   6.196 -0.0248 -0.0958 -0.3057
    1W        W37374   0.253  29.976   0.268  0.0844 -0.1112 -0.5628
    1W        W37375  18.811   6.374   1.145 -0.1040 -0.0340  0.2413
    1W        W37376   3.560   8.504   2.430  0.1703  0.2126  0.0265
    1W        W37377  20.162   1.132   1.528  0.0515  0.0695 -0.1206
    1W        W37378  16.878  13.372   8.288  0.1057 -0.0453 -0.0450
    1W        W37379   4.628   9.903   7.127 -0.0236  0.1868  0.1408
    1W        W37380   3.362  28.919   1.102  0.1265 -0.1863  0.2406
    1W        W37381   2.007  11.481   1.764  0.2264  0.0249 -0.2527
    1W        W37382   9.492  17.818   7.407 -0.0146  0.0697  0.0567
    1W        W37383  20.108   3.415   6.710  0.1321  0.2606  0.1805
    1W        W37384  12.064  10.780   2.464  0.0523  0.1716 -0.1580
    1W        W37385   7.482   6.520   9.404  0.0735 -0.0803 -0.0409
    1W        W37386  25.045   2.367   2.786  0.0945 -0.2771 -0.4113
    1W        W37387  24.463  25.006   7.736  0.1669 -0.1225 -0.0554
    1W        W37388  19.840  21.410   6.870 -0.0453 -0.2599 -0.0051
    1W        W37389  20.411   6.710   0.571 -0.1235  0.0751  0.1135
    1W        W37390   9.401  29.402   8.847 -0.0638  0.4531  0.1199
    1W        W37391  29.175   1.014   1.687  0.2805 -0.0384  0.0694
    1W        W37392   4.210  22.463   6.785  0.1051  0.2023 -0.1285
    1W        W37393   9.629  22.782   0.869  0.0050 -0.0607  0.2273
    1W        W37394  25.908   4.709   6.785  0.0132  0.1938  0.1526
    1W        W37395  19.761  10.792   7.542  0.2015  0.0876  0.0650
    1W        W37396  23.685   8.332   6.889 -0.2605 -0.1970 -0.0672
    1W        W37397   8.942  23.582   0.282 -0.1075 -0.1174 -0.1341
    1W        W37398  16.708   8.460   9.102  0.1881 -0.3013  0.1752
    1W        W37399   6.816  17.046   7.470 -0.1337 -0.2836  0.0792
    1W        W37400  28.588  16.512   2.150  0.0471  0.0442  0.2720
    1W        W37401   4.207   9.120   7.388  0.3916  0.1192 -0.0938
    1W        W37402  16.918  25.997   3.504  0.1432  0.0285 -0.0867
    1W        W37403  20.714  27.712   8.299 -0.2888 -0.1232  0.0747
    1W        W37404   6.390  20.919   8.424  0.0240  0.1276 -0.1382
    1W        W37405  29.758  12.875   8.832  0.1840  0.2030  0.0107
    1W        W37406  25.459   0.314   7.023 -0.3720 -0.1798 -0.0405
    1W        W37407  12.466   4.115   7.961 -0.0584  0.1612 -0.1541
    1W        W37408   5.810  19.275   1.449 -0.1061  0.0852 -0.0123
    1W        W37409  11.728  22.661   2.931 -0.1678  0.1576  0.1914
    1W        W37410  25.051  26.519   8.985  0.2444 -0.2967  0.3001
    1W        W37411   0.158   9.389   2.002 -0.1646 -0.1489 -0.0204
    1W        W37412  15.847  15.283   7.359 -0.3274  0.2516 -0.0221
    1W        W37413  18.399  14.432   8.228  0.0298  0.0492  0.0672
    1W        W37414   4.736  16.538   9.110 -0.2228  0.1700 -0.2162
    1W        W37415  17.843   8.148   1.856  0.1574  0.1292 -0.0884
    1W        W37416   2.779  12.250   1.234  0.1721 -0.0679 -0.1227
    1W        W37417  20.179  14.087   0.024 -0.2525 -0.0475 -0.4079
    1W        W37418   2.908  21.562   6.404 -0.1188 -0.0306  0.0313
    1W        W37419  15.805   0.061   1.368 -0.1326 -0.1430  0.1463
    1W        W37420  12.797  16.468   1.755 -0.0937 -0.1921  0.1668
    1W        W37421  11.772  20.841   7.803  0.3126  0.1387 -0.0240
    1W        W37422  24.923   3.376   2.306 -0.1737 -0.0729  0.1233
    1W        W37423   6.676  10.024   7.822  0.1779  0.1838  0.3205
    1W        W37424  16.601  16.089   7.164  0.0282  0.1614  0.0815
    1W        W37425   6.626  14.254   7.791  0.3960 -0.1711  0.2399
    1W        W37426  26.035  12.179   7.971 -0.1338 -0.2888  0.2744
    1W        W37427  18.741  10.553   9.063  0.1551 -0.5241  0.0091
    1W        W37428   0.745  15.046   0.740 -0.1352  0.0559 -0.2023
    1W        W37429  21.026   7.322   8.403  0.1012 -0.1283 -0.2173
    1W        W37430  27.452  21.125   7.548 -0.1237  0.2639  0.0763
    1W        W37431  14.705   6.968   3.244  0.2212 -0.0916 -0.3278
    1W        W37432   9.254   3.852   2.631  0.0843 -0.0756  0.2195
    1W        W37433  18.748   6.812   8.261  0.1329 -0.0453  0.2898
    1W        W37434   8.122  17.106   2.138 -0.1702  0.1789 -0.0990
    1W        W37435  20.598  18.348   9.215  0.0785  0.1316  0.3650
    1W        W37436  28.147   8.346   6.642 -0.0496  0.1005  0.0795
    1W        W37437  17.298  23.799   1.536  0.0935  0.2591  0.1685
    1W        W37438   3.866   4.960   6.305  0.0670 -0.2400  0.0548
    1W        W37439  20.250  11.270   8.645  0.0422  0.0777 -0.1965
    1W        W37440  19.932  28.643   8.590  0.3058 -0.0908 -0.0763
    1W        W37441   4.386   0.099   3.241  0.1926  0.0717 -0.2686
    1W        W37442   3.317  18.861   8.925  0.4287 -0.0711  0.0716
    1W        W37443   2.361   1.313   2.373  0.1131 -0.2137 -0.0490
    1W        W37444  29.842   3.737   1.550  0.0054 -0.1445 -0.0459
    1W        W37445  25.989   6.059   8.417  0.5859 -0.2066  0.2008
    1W        W37446  29.632  28.904   3.619 -0.2570  0.1074  0.0666
    1W        W37447   5.910  28.391   6.799  0.2480  0.0971 -0.2358
    1W        W37448   1.826   6.209   2.012  0.0245  0.2209 -0.1179
    1W        W37449  25.549  28.008   7.762 -0.1317 -0.0277  0.2286
    1W        W37450  15.981   2.741   3.219  0.1531  0.2640 -0.0951
    1W        W37451  23.438   9.030   6.101  0.4160 -0.3903 -0.1018
    1W        W37452  10.234  27.087   8.377 -0.0460 -0.1836 -0.1334
    1W        W37453  10.661  27.159   6.879 -0.4694 -0.2913  0.0817
    1W        W37454   6.033  17.415   9.291  0.2132 -0.0941  0.0403
    1W        W37455  23.954   7.862   0.221 -0.4771 -0.2709  0.1600
    1W        W37456  10.244  27.837   3.012  0.0036  0.1757 -0.0668
    1W        W37457  24.071  23.739   2.685 -0.3131  0.0306 -0.1694
    1W        W37458  19.271  12.082   1.171 -0.0103  0.3042 -0.3387
    1W        W37459  13.603  19.879   2.081 -0.0974 -0.1012  0.0874
    1W        W37460   6.418  12.706   7.640  0.0859  0.0779 -0.1774
    1W        W37461  16.190  18.871   7.757  0.3016 -0.0532  0.2166
    1W        W37462  12.490   3.602   7.116  0.1138 -0.0210 -0.1070
    1W        W37463  26.243  23.563   6.784 -0.0325 -0.1553  0.0773
    1W        W37464  25.021   3.792   1.791  0.1491  0.1381 -0.0617
    1W        W37465  23.717  28.767   7.022 -0.1646  0.1716  0.0350
    1W        W37466   8.594  24.798   1.345 -0.0788  0.0521 -0.3276
    1W        W37467  10.224  20.441   0.126 -0.0243  0.1669 -0.0474
    1W        W37468  22.862  21.236   7.047 -0.0234 -0.1382  0.1197
    1W        W37469  25.244  13.171   0.871 -0.1343 -0.0646 -0.2109
    1W        W37470  23.764  20.131   1.772  0.2732  0.0616 -0.0218
    1W        W37471  13.241  25.055   1.445  0.1980 -0.0567 -0.0354
    1W        W37472  19.331   6.587   1.983 -0.0226 -0.1039  0.4264
    1W        W37473  17.678  24.475   0.089 -0.0325  0.0385  0.2439
    1W        W37474  14.873  16.633   7.562 -0.0132  0.1477  0.0504
    1W        W37475  11.777  12.884   7.938  0.1702 -0.0554  0.0230
    1W        W37476  11.728  18.025   1.842  0.0214 -0.0180  0.0544
    1W        W37477   8.542   9.949   8.573  0.0608 -0.2419  0.1960
    1W        W37478   0.778  20.758   8.076  0.0142  0.2624 -0.1658
    1W        W37479  15.766   0.305   6.297  0.1160 -0.0084 -0.0813
    1W        W37480   5.234  16.701   1.440  0.2619 -0.1784 -0.1653
    1W        W37481   9.279   9.634   0.727 -0.0257  0.2559 -0.1324
    1W        W37482  11.667  18.818   8.235 -0.3106  0.0339 -0.2412
    1W        W37483  24.998   3.756   1.163 -0.2265  0.0331  0.1605
    1W        W37484   1.441  15.709   0.233 -0.1643  0.0954  0.2057
    1W        W37485   5.108  25.554   6.086 -0.3194 -0.1204 -0.1055
    1W        W37486  16.647  20.909   0.542 -0.0838 -0.1292 -0.1553
    1W        W37487  17.222  20.630   1.887 -0.1381  0.1716 -0.1269
    1W        W37488   4.341  29.796   3.801  0.1487 -0.2060 -0.5624
    1W        W37489   0.393  25.565   8.388  0.0584  0.0307 -0.1333
    1W        W37490  11.448  30.015   9.349  0.1702 -0.0357  0.2090
    1W        W37491   0.326  21.553   0.840  0.4314  0.0744  0.1026
    1W        W37492   5.466  25.214   6.391  0.0349  0.0848  0.1787
    1W        W37493  13.562  25.697   1.148 -0.1134 -0.1266 -0.1861
    1W        W37494   5.470  11.036   8.957 -0.1171  0.0522 -0.2875
    1W        W37495  18.217  28.162   8.466 -0.1688  0.2153 -0.1686
    1W        W37496  22.642  23.953   1.542  0.1930  0.1246 -0.0022
    1W        W37497  21.661  15.779   1.064 -0.1139 -0.3092 -0.3492
    1W        W37498  21.489   2.157   7.130  0.1146 -0.1514  0.2981
    1W        W37499  28.813   1.129   0.380 -0.0302  0.0743  0.1648
    1W        W37500  24.970  22.207   7.114 -0.0077 -0.1045  0.2560
    1W        W37501  21.352  14.964   8.503  0.1705  0.2412 -0.0363
    1W        W37502  30.050  24.937   8.598 -0.0152  0.3433 -0.1730
    1W        W37503   6.896  29.330   0.020  0.4173 -0.0213  0.0443
    1W        W37504   7.422  21.816   6.797 -0.0601  0.3863  0.1239
    1W        W37505  17.117  22.772   9.034 -0.2064  0.1322 -0.3329
    1W        W37506  24.243   4.080   2.421 -0.1653 -0.3749 -0.0798
    1W        W37507   6.465   0.603   2.201  0.1096  0.4285 -0.0141
    1W        W37508  14.581  16.352   7.849  0.2643  0.2667 -0.1241
    1W        W37509   3.793   7.998   2.422  0.1437  0.1432 -0.2121
    1W        W37510   3.706  19.283   0.645  0.0523 -0.0855 -0.2399
    1W        W37511  13.139  14.478   1.557  0.1826 -0.1489  0.0245
    1W        W37512   2.247  12.273   1.332  0.0074 -0.0421 -0.4909
    1W        W37513  22.468  20.159   1.009 -0.1288  0.0735 -0.1737
    1W        W37514  28.979   7.164   8.525  0.1272  0.0723  0.1452
    1W        W37515   4.062   7.914   0.407 -0.0426 -0.1422  0.0073
    1W        W37516  23.315  16.713   8.188  0.1474  0.0762 -0.0707
    1W        W37517  16.213  26.656   0.729 -0.0698 -0.0063 -0.2653
    1W        W37518   1.372   7.802   1.006 -0.4666  0.0310  0.0341
    1W        W37519  11.983   4.737   1.851  0.3317 -0.2971  0.2990
    1W        W37520   6.394   4.724   0.053 -0.0173 -0.1152  0.0468
    1W        W37521  17.922  24.606   8.018  0.2191 -0.0059  0.2466
    1W        W37522   4.817  14.352   1.601  0.2100  0.0733 -0.2613
    1W        W37523  27.703   9.917   7.170  0.1750 -0.1168 -0.1033
    1W        W37524  25.509   0.419   1.219  0.0651  0.1639  0.2949
    1W        W37525   5.187  27.266   2.554  0.0488  0.0063 -0.0523
    1W        W37526  17.172  21.744   0.088  0.0227 -0.0740  0.2816
    1W        W37527   0.565  14.810   2.028 -0.2585 -0.0935  0.0159
    1W        W37528  16.663  27.245   7.135  0.3208 -0.1960 -0.1788
    1W        W37529  23.615  14.751   0.938  0.5100 -0.2163 -0.1036
    1W        W37530  19.785  23.343   9.074 -0.1987 -0.0864  0.0297
    1W        W37531  20.983   0.229   0.852 -0.2696  0.0757 -0.0770
    1W        W37532   1.088  23.601   0.946 -0.3638 -0.3239 -0.0698
    1W        W37533   6.322  10.217   0.605 -0.0686  0.0320  0.2528
    1W        W37534  23.276   9.303   1.439 -0.1299  0.0879  0.1440
    1W        W37535  21.969  28.821   6.048 -0.1543 -0.0394  0.3421
    1W        W37536  11.673  17.801   8.281 -0.0263 -0.0261  0.2628
    1W        W37537   3.658   5.033   2.198  0.0080 -0.0964 -0.2795
    1W        W37538  23.465  26.111   8.095 -0.1570 -0.0835  0.0353
    1W        W37539  25.959  15.863   6.873 -0.0979  0.0466 -0.1798
    1W        W37540  27.573  18.883   6.908 -0.2044  0.1202  0.1137
    1W        W37541   0.554   9.519   8.666  0.2144 -0.0744 -0.1307
    1W        W37542   3.177  13.078   6.246 -0.0576 -0.0453  0.2679
    1W        W37543   1.903  18.161   8.978  0.0219 -0.0806 -0.2023
    1W        W37544  10.063  21.913   7.281  0.3614  0.2532  0.2663
    1W        W37545  14.108   6.814   8.182 -0.0871  0.1010  0.1980
    1W        W37546  28.401   0.245   2.479  0.4233  0.0401  0.1785
    1W        W37547  20.502   6.811   3.354  0.0880  0.1476 -0.0350
    1W        W37548   0.373  26.590   0.067 -0.0700  0.0325  0.7551
    1W        W37549  20.698  29.785   8.783  0.3779 -0.0602  0.1514
    1W        W37550  16.957  11.734   7.664  0.0469 -0.1345 -0.0139
    1W        W37551  21.231  15.440   1.225 -0.1522  0.0669 -0.3003
    1W        W37552  26.137  20.108   1.166  0.0043 -0.0623 -0.0263
    1W        W37553   0.314   1.296   1.004  0.1295  0.2532 -0.0153
    1W        W37554   3.010  17.396   1.146  0.1238 -0.2813 -0.0611
    1W        W37555  19.142   2.858   8.357 -0.0630 -0.1497 -0.0389
    1W        W37556   4.562  15.885   1.075 -0.0693 -0.2318 -0.1549
    1W        W37557  22.756  14.879   7.424  0.1478 -0.2696 -0.0136
    1W        W37558  20.239   9.388   1.313  0.0417 -0.1238 -0.1643
    1W        W37559  20.494  13.852   0.320 -0.1594  0.2786  0.2999
    1W        W37560   7.797  18.963   2.479  0.0761 -0.0453 -0.1898
    1W        W37561  22.831   0.461   1.201 -0.0244  0.1003  0.3520
    1W        W37562  29.015  25.948   1.277 -0.1534  0.0361 -0.0400
    1W        W37563  11.755   4.983   0.509 -0.0873 -0.1606  0.0615
    1W        W37564   4.102   6.834   0.671  0.0495 -0.1345 -0.0691
    1W        W37565   4.280   9.269   7.885  0.0404 -0.1071 -0.0905
    1W        W37566   7.079   4.124   2.345 -0.0589 -0.0151 -0.1801
    1W        W37567  25.824  27.119   8.986 -0.3468  0.1476 -0.0426
    1W        W37568  25.718  19.725   8.897  0.1713  0.1832 -0.1438
    1W        W37569  17.206   0.578   0.646  0.2664  0.2880  0.2252
    1W        W37570   0.567   2.486   0.313 -0.2689  0.2322  0.1351
    1W        W37571   7.346  21.320   1.258  0.0281 -0.2788  0.0886
    1W        W37572   0.065  12.208   1.094 -0.2019 -0.0247  0.0665
    1W        W37573  11.128   7.890   0.330  0.1506  0.1201  0.2012
    1W        W37574   2.189   7.574   8.350  0.3449  0.3292  0.1993
    1W        W37575  20.836  10.917   1.425 -0.2031 -0.1633 -0.1249
    1W        W37576   3.938  24.579   1.702  0.1498 -0.2053 -0.3794
    1W        W37577   9.668  24.945   2.171 -0.2471  0.2551  0.1665
    1W        W37578  26.210   0.965   6.878  0.1474 -0.2118 -0.1343
    1W        W37579  10.712   9.239   2.628  0.1382  0.1201  0.2882
    1W        W37580  18.494  20.353   1.034 -0.0871 -0.1878  0.2427
    1W        W37581   9.993   4.262   0.174 -0.0234  0.1065 -0.1188
    1W        W37582  14.830  26.280   8.259 -0.1315 -0.1911  0.0713
    1W        W37583   6.767  24.143   1.252  0.0717  0.2253  0.0074
    1W        W37584   9.992   5.598   7.780  0.1827 -0.0293 -0.2950
    1W        W37585   9.187   0.911   1.139 -0.3713  0.1429  0.0563
    1W        W37586  17.341   7.273   0.463 -0.0679 -0.1174 -0.0862
    1W        W37587  27.567  27.614   9.206 -0.2251  0.0279 -0.3272
    1W        W37588   2.670  19.877   5.992 -0.1255 -0.0757  0.2588
    1W        W37589  24.804   1.714   1.229 -0.2658 -0.0627  0.1372
    1W        W37590  25.429   7.334   2.626 -0.1761 -0.0418  0.0726
    1W        W37591   5.365  16.107   0.191 -0.1958  0.1594 -0.1301
    1W        W37592   0.401  26.669   2.055 -0.0003  0.0616  0.0003
    1W        W37593  28.296  10.801   2.436 -0.0160  0.0655 -0.1861
    1W        W37594   5.599  22.975   0.488  0.3345 -0.1838  0.2192
    1W        W37595   9.482   0.886   7.637 -0.3318 -0.4400  0.1683
    1W        W37596  25.328  15.685   7.604 -0.1246  0.0708  0.1049
    1W        W37597   8.913  28.144   6.456  0.0992 -0.1297  0.0679
    1W        W37598   9.489   7.519   7.804  0.1501  0.1171  0.1311
    1W        W37599   6.886  27.035   6.580  0.1371  0.3497 -0.1491
    1W        W37600  20.994  19.137   7.853  0.2400  0.0025  0.1959
    1W        W37601   4.881   4.109   2.688  0.0695  0.1897  0.3291
    1W        W37602   0.507   5.273   3.419 -0.3202  0.0247 -0.0521
    1W        W37603   3.338   6.306   2.441 -0.0597  0.0960 -0.0222
    1W        W37604  12.805   4.872   0.459 -0.2231  0.2928 -0.0709
    1W        W37605   1.404  20.199   9.401 -0.2004 -0.1902  0.2848
    1W        W37606   5.783  12.607   9.233  0.0918  0.0809 -0.2585
    1W        W37607  22.401   9.566   0.553  0.2075  0.0027 -0.2559
    1W        W37608  24.550  16.830   8.058 -0.1475  0.1873  0.1819
    1W        W37609  21.590   8.277   9.087 -0.1189  0.0343 -0.2623
    1W        W37610  10.472   5.636   2.064 -0.2199 -0.0527  0.0345
    1W        W37611  17.538  10.818   8.382 -0.3901  0.1759  0.3904
    1W        W37612  26.152  16.888   5.991  0.1341  0.2786 -0.1012
    1W        W37613   0.332  14.169   7.423 -0.0198 -0.2041  0.1138
    1W        W37614  14.046   6.641   3.374  0.1739 -0.0977  0.0817
    1W        W37615  18.523   0.109   2.351 -0.1066  0.0278 -0.1533
    1W        W37616  18.576   4.094   2.882  0.1372  0.0001  0.0918
    1W        W37617   8.038  28.212   2.000  0.0724  0.1180  0.3336
    1W        W37618   1.075  16.955   6.584  0.1552 -0.0667 -0.1011
    1W        W37619  20.851   3.553   2.907  0.0308 -0.3829 -0.2257
    1W        W37620  11.438  29.626   2.016 -0.2972  0.0188 -0.0034
    1W        W37621  18.955  13.586   7.957 -0.2110  0.1067  0.0916
    1W        W37622  18.331  15.665   0.115 -0.1294 -0.0415 -0.1668
    1W        W37623   5.269  26.976   3.034  0.0128  0.0659 -0.2527
    1W        W37624   6.619   4.423   8.266  0.2209 -0.2432 -0.1837
    1W        W37625  22.463   9.370   9.271 -0.0357  0.2631 -0.1198
    1W        W37626  11.255  15.073   1.522 -0.1477 -0.3372  0.2249
    1W        W37627  19.653   0.829   1.675 -0.4042 -0.0830 -0.0512
    1W        W37628  15.173   0.015   8.125  0.0464 -0.0843 -0.0803
    1W        W37629  21.221   6.362   2.479  0.2175 -0.2555 -0.1250
    1W        W37630  22.676   6.440   3.254 -0.1237  0.0792 -0.0489
    1W        W37631   6.492  15.742   7.549  0.0492 -0.1190 -0.4099
    1W        W37632   2.511  19.234   6.042 -0.4218  0.0021  0.1277
    1W        W37633  20.735  18.611   8.785 -0.0952 -0.0304 -0.1930
    1W        W37634   9.616   2.415   2.901  0.0597  0.2351  0.0633
    1W        W37635  15.515   5.361   7.004 -0.1758 -0.0738 -0.0198
    1W        W37636   7.658  13.373   8.741 -0.0931  0.3262  0.1751
    1W        W37637   4.007  28.220   1.893 -0.0258  0.2104 -0.1345
    1W        W37638   2.986  26.518   7.088 -0.6086 -0.5908 -0.1652
    1W        W37639  15.677  27.677   7.631  0.1157 -0.3795 -0.1633
    1W        W37640  15.593   0.667   9.281 -0.1276  0.0349  0.2131
    1W        W37641   8.955  22.841   6.503 -0.5888 -0.2405 -0.6765
    1W        W37642   3.610  25.393   7.952 -0.2458 -0.0272  0.0931
    1W        W37643   7.772  29.457   9.225 -0.3617  0.4586  0.1087
    1W        W37644  28.996   6.633   0.893 -0.3238 -0.0350 -0.1042
    1W        W37645  29.594  27.692   3.568 -0.0739  0.0192 -0.2181
    1W        W37646  12.168  15.934   7.661 -0.0303 -0.0097  0.2042
    1W        W37647   4.601  17.590   8.907  0.5363 -0.1111  0.1548
    1W        W37648   1.861   8.591   9.368 -0.3192  0.3353 -0.2923
    1W        W37649   8.631  20.971   2.160  0.1819 -0.0638 -0.0336
    1W        W37650  16.935  24.766   0.975 -0.1715  0.1097 -0.0952
    1W        W37651  11.741   5.668   2.553  0.1323  0.1810 -0.1920
    1W        W37652  30.060  27.948   0.584  0.0659  0.0378 -0.0178
    1W        W37653   9.501  19.211   1.329  0.1030  0.2092 -0.0553
    1W        W37654  23.302   8.895   1.971 -0.1026  0.0515  0.0762
    1W        W37655  15.197  20.767   0.995  0.0098 -0.1738  0.1371
    1W        W37656   3.680   9.543   2.421 -0.0166 -0.2220  0.2649
    1W        W37657  20.537   9.866   8.378  0.2868  0.0446 -0.0744
    1W        W37658  13.797  16.942   8.734 -0.2148 -0.4049 -0.2075
    1W        W37659  14.404  27.765   7.408 -0.0693 -0.2780 -0.2152
    1W        W37660  28.503  24.412   1.344  0.1843 -0.2855  0.0265
    1W        W37661   7.783  21.900   1.507 -0.3319 -0.1514 -0.1567
    1W        W37662   1.354  17.108   6.021 -0.0952  0.1103 -0.0659
    1W        W37663   2.437  27.532   2.151 -0.4787 -0.0632 -0.0314
    1W        W37664   1.604  23.739   7.196 -0.0636 -0.0603 -0.4649
    1W        W37665  18.272   2.040   1.074  0.0540 -0.0410  0.0748
    1W        W37666   7.397  21.031   1.805  0.3341 -0.0507  0.0570
    1W        W37667  19.576  27.462   7.034  0.1814  0.1206 -0.0890
    1W        W37668   1.614  22.646   8.302 -0.4013  0.4868  0.0955
    1W        W37669   6.713  26.933   7.137  0.1514  0.0739  0.1975
    1W        W37670   6.104   5.352   3.218  0.0306  0.0651 -0.0343
    1W        W37671  11.987   2.532   3.216  0.2101  0.0906  0.2236
    1W        W37672  15.256  13.592   1.333 -0.1155  0.1864  0.0509
    1W        W37673  10.625   2.519   9.175 -0.0186 -0.0739  0.0616
    1W        W37674   8.620  13.874   0.788  0.2405 -0.2094  0.0590
    1W        W37675  20.788  18.039   6.728  0.0325 -0.0415 -0.4417
    1W        W37676  22.482  15.361   2.185  0.0591  0.0971  0.4255
    1W        W37677  14.390  11.673   8.672  0.0956 -0.1058 -0.1308
    1W        W37678   1.138  18.458   7.286  0.1438 -0.0260  0.2536
    1W        W37679  29.751  22.736   0.411 -0.0323 -0.0624 -0.0280
    1W        W37680  12.142  11.110   1.945 -0.0371 -0.1099 -0.1336
    1W        W37681  10.455  27.701   7.683  0.0578  0.2803  0.1766
    1W        W37682  26.769  13.309   0.073  0.2297 -0.3830 -0.2413
    1W        W37683  24.603   0.491   2.800 -0.0107 -0.1503 -0.2848
    1W        W37684   9.225   5.973   2.260  0.1194 -0.1013 -0.1572
    1W        W37685   6.035  15.101   7.646  0.0648 -0.3007 -0.0345
    1W        W37686  11.453   3.056   9.049  0.0747 -0.0872  0.2099
    1W        W37687  16.748   5.899   7.731 -0.2119 -0.2400 -0.0873
    1W        W37688   5.397  30.073   3.186  0.1083  0.0750  0.2048
    1W        W37689  28.058  27.619   2.976 -0.1490  0.2936  0.0307
    1W        W37690   8.744   4.556   1.435 -0.0778  0.0432  0.0136
    1W        W37691  22.458  27.873   6.303  0.0153  0.0941  0.2098
    1W        W37692   3.867   0.027   7.109  0.1900 -0.3869  0.0471
    1W        W37693  26.239   2.997   0.149  0.0177 -0.2448 -0.2770
    1W        W37694   4.228  24.952   8.602  0.1362 -0.1283  0.0544
    1W        W37695   0.326  14.546   5.231 -0.2460 -0.1105  0.0976
    1W        W37696  26.402   8.373   0.133 -0.1345  0.0792  0.0684
    1W        W37697   4.089   3.349   1.726 -0.3458 -0.1586  0.0066
    1W        W37698  17.249  17.330   6.598  0.2639  0.0834  0.0558
    1W        W37699   3.436   5.267   8.787  0.0077  0.0863 -0.1293
    1W        W37700  22.654  22.760   2.827 -0.1497 -0.1888  0.0869
    1W        W37701  24.657  28.744   0.160 -0.0532  0.2251 -0.3705
    1W        W37702  26.240  11.848   6.279 -0.1908  0.2925  0.0722
    1W        W37703  28.228   4.040   5.837  0.1959  0.0857 -0.0769
    1W        W37704   0.624  10.595   6.719  0.0515 -0.0661 -0.2536
    1W        W37705   3.536   9.032   2.425  0.0700 -0.1629 -0.1280
    1W        W37706   8.033   0.745   7.755  0.5410 -0.1904 -0.0537
    1W        W37707  21.355   7.568   1.057 -0.0255  0.2153 -0.1625
    1W        W37708  15.223   6.994   2.427 -0.0056  0.0355  0.0067
    1W        W37709  16.336   5.557   2.566 -0.0240 -0.0761 -0.0835
    1W        W37710  29.251  27.547   1.106 -0.2565  0.2008  0.1730
    1W        W37711  18.445  26.733   2.052 -0.0269 -0.3336 -0.0868
    1W        W37712  10.062  16.383   1.335  0.0272 -0.1264 -0.0590
    1W        W37713  14.717  27.418   7.322  0.0513 -0.0898 -0.2807
    1W        W37714   6.026  24.343   0.100 -0.3775 -0.0089 -0.2536
    1W        W37715  19.509  16.160   0.099 -0.0044  0.3410 -0.2357
    1W        W37716   6.400   4.984   1.948  0.0016 -0.0489 -0.1519
    1W        W37717  13.680   7.374   0.772  0.0248  0.1486  0.0341
    1W        W37718   6.615   6.775   9.335  0.3998 -0.0650 -0.3908
    1W        W37719  24.605   0.018   1.707  0.1641  0.2769 -0.0052
    1W        W37720   7.989  20.507   7.319  0.2231  0.1665 -0.0571
    1W        W37721  18.100  23.452   6.710  0.0158  0.2059  0.0521
    1W        W37722  13.347  24.962   2.382  0.1028 -0.1942 -0.0599
    1W        W37723  13.374  21.980   1.509 -0.0841 -0.2172  0.6241
    1W        W37724  13.116  21.979   9.384 -0.0272  0.0552  0.0087
    1W        W37725  27.500  25.328   7.242  0.2487 -0.3894  0.0685
    1W        W37726  28.233  27.788   7.464 -0.2992 -0.1388 -0.0772
    1W        W37727  18.697   9.438   0.581 -0.0496 -0.1735  0.3755
    1W        W37728  22.849  27.146   9.062 -0.2453 -0.0060 -0.1305
    1W        W37729   4.071  25.391   0.159  0.1611 -0.2294  0.2552
    1W        W37730   7.343  22.038   1.654 -0.1991  0.3629  0.1317
    1W        W37731   6.956   5.461   8.669 -0.4349  0.3084 -0.0811
    1W        W37732  11.320  21.142   7.635  0.4406  0.1978 -0.0224
    1W        W37733  18.813   7.303   2.634  0.1929 -0.2478 -0.1289
    1W        W37734   2.101  28.044   2.131  0.2574  0.4709 -0.1900
    1W        W37735   2.958  13.455   1.906  0.3267  0.2751  0.0816
    1W        W37736  28.888  10.170   2.576  0.0642  0.0591 -0.1397
    1W        W37737  18.821  20.219   7.806 -0.1326 -0.1460 -0.1635
    1W        W37738   2.174  19.319   0.249  0.2478  0.0409 -0.0963
    1W        W37739  14.707  26.642   1.363 -0.0687  0.0975  0.1613
    1W        W37740   7.554  17.696   2.557  0.0579 -0.1286 -0.2948
    1W        W37741  17.651   2.786   2.475  0.2668 -0.1129  0.0853
    1W        W37742   5.852   7.649   0.829 -0.4838  0.1298  0.3218
    1W        W37743  12.429  29.545   9.354 -0.0701  0.0365 -0.2682
    1W        W37744  10.240  24.280   8.297 -0.1873  0.0651  0.2281
    1W        W37745   6.093   7.645   3.879 -0.0994 -0.1774  0.4250
    1W        W37746  10.294  25.815   6.959  0.2574  0.0796  0.2554
    1W        W37747  21.649  16.333   6.996  0.0854 -0.2177  0.0380
    1W        W37748   0.691  14.832   7.618 -0.0403 -0.1621 -0.1005
    1W        W37749  14.125  11.297   1.981  0.0388  0.1535  0.0733
    1W        W37750  16.786  10.023   6.671  0.0495  0.1748  0.1552
    1W        W37751  23.528  13.349   6.246 -0.1138 -0.0099  0.2000
    1W        W37752   9.451  10.995   8.559  0.1292  0.0750 -0.0176
    1W        W37753  24.427   1.696   0.929 -0.2039 -0.0434 -0.3561
    1W        W37754  20.838  15.696   1.044  0.1796 -0.1380 -0.2270
    1W        W37755   4.180  10.930   7.334  0.1462 -0.0906  0.3053
    1W        W37756   1.167  12.211   0.935 -0.2419 -0.3870  0.2884
    1W        W37757  10.091   5.968   3.044 -0.1633 -0.2620  0.0183
    1W        W37758  21.193   9.526   0.417  0.0082 -0.1659  0.1853
    1W        W37759  27.224  10.678   7.117  0.2028  0.1338 -0.2097
    1W        W37760  26.542  28.327   6.880  0.1278 -0.0595 -0.0496
    1W        W37761   7.017  15.881   1.329  0.4115  0.0904  0.2797
    1W        W37762  18.030  17.164   0.315  0.1384 -0.0751 -0.3514
    1W        W37763   3.345   7.487   6.316 -0.1922 -0.4812  0.0108
    1W        W37764   4.671  14.435   0.554  0.0807 -0.0591 -0.1679
    1W        W37765  17.668   9.993   8.937 -0.0755 -0.0265 -0.2925
    1W        W37766   4.376  27.689   1.130 -0.1174 -0.2525 -0.1034
    1W        W37767  16.211  10.789   7.406 -0.4693  0.0469  0.1520
    1W        W37768   5.942  10.565   7.175 -0.2653  0.0711  0.4954
    1W        W37769   0.370  25.590   9.333 -0.0368  0.2329 -0.1547
    1W        W37770   1.302  11.970   8.232 -0.0728  0.1464  0.0833
    1W        W37771   4.528  27.089   9.234  0.1601  0.1411  0.3935
    1W        W37772  16.743   5.441   2.283  0.1428 -0.0265  0.0683
    1W        W37773   4.486  19.662   1.417 -0.1282 -0.3113  0.4719
    1W        W37774   4.563  21.727   1.586  0.1599 -0.0217 -0.1218
    1W        W37775  15.826  24.763   9.397  0.0821 -0.2060 -0.0448
    1W        W37776  21.593  24.929   8.979  0.1012 -0.1722 -0.0506
    1W        W37777  14.169   6.924   2.969 -0.1318  0.2201 -0.1456
    1W        W37778   4.740  15.196   8.029  0.1354 -0.3210 -0.0170
    1W        W37779   0.418  19.970   9.334  0.0702  0.2132  0.0632
    1W        W37780   2.973  26.667   1.917 -0.3063 -0.5429 -0.2531
    1W        W37781  19.166  16.809   0.418 -0.2234  0.0861  0.1889
    1W        W37782   5.282   9.231   1.014 -0.1040 -0.0821  0.1048
    1W        W37783  16.979  13.690   2.363 -0.0674  0.1005  0.1253
    1W        W37784  23.721  17.146   9.071 -0.2988  0.0772  0.0611
    1W        W37785  22.920  18.519   0.170  0.0310 -0.0249  0.2509
    1W        W37786  13.278  25.952   1.487  0.2223  0.0085 -0.0853
    1W        W37787  16.690  10.504   7.353  0.3946 -0.1354  0.1380
    1W        W37788   7.420   5.675   9.228  0.1834  0.0445  0.0693
    1W        W37789  22.954  24.258   2.840  0.1165 -0.2101 -0.0591
    1W        W37790  26.721  25.909   0.917 -0.5247 -0.3541  0.0546
    1W        W37791  23.114  22.316   0.717  0.2594 -0.0319 -0.1697
    1W        W37792  16.446   0.437   8.718 -0.1162  0.3082 -0.0353
    1W        W37793  24.649  16.357   8.931 -0.2929 -0.0543 -0.1106
    1W        W37794   2.908  22.026   6.198  0.1552  0.0000 -0.0483
    1W        W37795   9.137   1.096   2.152 -0.0896  0.0775 -0.0627
    1W        W37796  13.690  26.313   7.253 -0.0678  0.0053  0.1309
    1W        W37797   2.189  27.884   7.745 -0.0276 -0.0827  0.3102
    1W        W37798   6.763   0.908   0.966  0.1153  0.1920  0.2036
    1W        W37799  17.092   3.585   1.718 -0.0409  0.0205 -0.1483
    1W        W37800   0.948   4.600   9.243 -0.0448  0.1063  0.2355
    1W        W37801  16.143  12.156   8.047  0.1645  0.3418 -0.0709
    1W        W37802  20.797   1.450   1.894  0.3008  0.0376  0.1100
    1W        W37803  24.528  19.684   6.854 -0.1920 -0.2528  0.1274
    1W        W37804  29.679   8.636   7.106  0.0928  0.0513  0.1188
    1W        W37805  22.704  18.848   0.599  0.1147 -0.1931  0.2710
    1W        W37806  10.846  27.578   7.397 -0.0298  0.1276 -0.2743
    1W        W37807  22.111  25.747   6.736 -0.4153  0.0084  0.1202
    1W        W37808  23.173   4.541   0.627  0.0813  0.2626  0.0414
    1W        W37809   7.490   7.344   1.069 -0.0364  0.1758 -0.0471
    1W        W37810  12.577  15.096   1.540  0.0437 -0.3119 -0.2991
    1W        W37811  14.189  15.422   0.721 -0.4618 -0.0149 -0.1318
    1W        W37812  17.235  11.398   8.317 -0.2700 -0.2357 -0.1155
    1W        W37813   0.398  19.485   7.244  0.0287 -0.0046  0.2973
    1W        W37814  23.147  20.277   0.438  0.0663 -0.0606  0.0301
    1W        W37815  24.660  25.400   8.634 -0.0376 -0.0741 -0.0382
    1W        W37816  10.121  18.550   1.529  0.1367 -0.0127 -0.2924
    1W        W37817  29.269  16.275   6.317  0.0316 -0.0495 -0.2728
    1W        W37818  30.109  15.084   0.957  0.0852  0.0613  0.3122
    1W        W37819   9.452  12.753   3.091 -0.1928  0.0818  0.0775
    1W        W37820  26.875  21.399   8.064 -0.2634 -0.0232  0.3140
    1W        W37821   7.097   9.697   0.673 -0.1376 -0.1752 -0.3361
    1W        W37822  27.508  21.089   6.827 -0.1933  0.2159  0.0492
    1W        W37823  13.720  26.204   1.333  0.2122 -0.0901  0.3095
    1W        W37824   8.159   0.638   7.080 -0.1299  0.3115  0.1592
    1W        W37825  19.509  28.493   3.528  0.0837  0.1272  0.3026
    1W        W37826  17.939  13.013   7.152  0.0502  0.1288  0.0046
    1W        W37827  14.344   5.380   8.230 -0.3832 -0.0466  0.0221
    1W        W37828  17.663   1.889   2.280 -0.0062  0.3849  0.1726
    1W        W37829   7.341   0.117   3.291  0.2927 -0.3994 -0.1669
    1W        W37830  22.481  26.620   2.607  0.0918  0.0698  0.3721
    1W        W37831  14.569  20.767   7.696  0.1352  0.2594  0.1239
    1W        W37832  19.283  15.717   1.241 -0.0670  0.2686 -0.0009
    1W        W37833  15.838  14.812   0.688  0.3013 -0.2410 -0.1078
    1W        W37834   5.662  27.926   8.217  0.1067  0.1337 -0.0621
    1W        W37835  19.592  23.465   0.314  0.0167 -0.0682 -0.1047
    1W        W37836  17.374  29.160   1.393 -0.1880 -0.0058 -0.0941
    1W        W37837  22.771  16.051   0.258  0.2863 -0.3906  0.2858
    1W        W37838  21.988  21.281   8.629 -0.1574  0.0844 -0.1540
    1W        W37839  18.766  18.447   1.790 -0.1657 -0.2623 -0.0510
    1W        W37840  17.632   4.474   3.255 -0.1292 -0.0518  0.2768
    1W        W37841  12.465  22.962   2.234 -0.1322  0.3383 -0.1760
    1W        W37842  22.370  12.939   8.012  0.0771 -0.4770  0.2379
    1W        W37843  25.017  14.772   0.800  0.1496  0.1881  0.0709
    1W        W37844   1.440  18.906   8.171  0.1575 -0.1877  0.2756
    1W        W37845  25.372   2.616   1.166 -0.1199  0.1571  0.1588
    1W        W37846  16.295  11.738   8.205  0.0312  0.2578 -0.0772
    1W        W37847   1.477  24.678   5.779 -0.0031  0.4126  0.2001
    1W        W37848   3.831  21.346   8.764  0.2487 -0.2013  0.1443
    1W        W37849   4.857  21.458   7.120  0.3085  0.0528  0.1001
    1W        W37850  11.263  24.861   9.068  0.0179 -0.0724 -0.0110
    1W        W37851  26.462  18.252   6.390  0.2711 -0.1662  0.1339
    1W        W37852   0.424  14.629   1.580  0.0526  0.3514  0.1138
    1W        W37853  14.023  17.990   2.331 -0.1376 -0.1113 -0.0327
    1W        W37854   3.835  19.726   0.479 -0.0440  0.2085  0.1635
    1W        W37855  10.403  16.847   0.703 -0.0075  0.1489  0.1397
    1W        W37856   8.338  10.688   3.552 -0.0211  0.1705 -0.0723
    1W        W37857   7.705  14.622   1.767  0.1765 -0.0959 -0.0200
    1W        W37858  26.115  26.721   2.362 -0.1392 -0.2483  0.0556
    1W        W37859   5.674  23.494   0.291  0.2720  0.1577  0.2455
    1W        W37860   2.258   7.955   8.792  0.2065  0.0388 -0.4028
    1W        W37861  11.375  17.784   7.200  0.0587  0.2265  0.1484
    1W        W37862  10.326   5.081   0.035 -0.0918  0.0468  0.2326
    1W        W37863   9.005  16.441   9.331 -0.4394  0.1879 -0.0548
    1W        W37864  18.880  29.314   3.393 -0.0759  0.0979 -0.2106
    1W        W37865  27.609  15.221   7.304  0.0416  0.0770  0.2455
    1W        W37866  24.575   5.009   1.232  0.0283 -0.3004 -0.0562
    1W        W37867  29.368  12.434   7.548 -0.1753  0.0319 -0.1917
    1W        W37868   9.967  27.567   1.888 -0.0044 -0.0314 -0.0078
    1W        W37869  20.391  20.985   0.803 -0.0186 -0.1856 -0.1985
    1W        W37870  28.494  12.194   0.491 -0.0920 -0.6665  0.0842
    1W        W37871  15.980   0.008   7.560 -0.0121  0.0210  0.1046
    1W        W37872  10.495   4.585   2.808  0.1565 -0.1297  0.1408
    1W        W37873  15.213   0.557   8.105 -0.0170 -0.0092 -0.0826
    1W        W37874  13.663  23.944   0.551 -0.1231 -0.2173  0.0338
    1W        W37875   3.475  21.032   5.875 -0.2007  0.2285  0.2284
    1W        W37876  13.204  21.440   7.008 -0.1507 -0.1540 -0.0126
    1W        W37877  27.450   0.859   3.028  0.3529 -0.3240 -0.2422
    1W        W37878   1.851   5.179   2.913  0.0611  0.1468  0.0431
    1W        W37879  20.887  23.728   1.450  0.0451  0.1032 -0.1502
    1W        W37880  29.027  11.790   8.940 -0.0578  0.0213  0.1131
    1W        W37881   6.540   7.550   2.531  0.1399 -0.2338 -0.0108
    1W        W37882  25.853  29.621   1.012  0.1831  0.0521 -0.0447
    1W        W37883  19.918  27.646   0.164 -0.0385 -0.2415 -0.1943
    1W        W37884  11.377  13.340   2.376  0.1647  0.4783 -0.0194
    1W        W37885  19.975  14.465   6.756 -0.2425 -0.1079 -0.1663
    1W        W37886  13.341   4.209   1.586 -0.0942 -0.0475 -0.1238
    1W        W37887  21.350  18.272   6.879 -0.3586 -0.1414  0.0299
    1W        W37888  15.071   2.044   1.023  0.2868  0.1540  0.1105
    1W        W37889  13.662  12.028   8.369  0.0306 -0.0425  0.0169
    1W        W37890  11.450  18.284   7.387 -0.2746  0.1150 -0.1392
    1W        W37891  30.062  10.136   7.573 -0.1966  0.0880 -0.0655
    1W        W37892   5.799   8.706   2.398 -0.0496  0.0458 -0.2691
    1W        W37893  10.042   7.272   1.924 -0.1406  0.0312  0.1638
    1W        W37894   9.352  21.601   7.847  0.0710 -0.1083 -0.2895
    1W        W37895  26.315  28.599   0.445  0.0206 -0.1174  0.0682
    1W        W37896  10.146  19.935   8.333  0.1683  0.1205 -0.2992
    1W        W37897  29.771   3.420   3.675  0.0539 -0.1971 -0.2263
    1W        W37898   1.195  11.938   0.497 -0.3899 -0.0787 -0.1821
    1W        W37899  23.105  28.295   0.522 -0.1638 -0.1943 -0.1218
    1W        W37900  16.031  27.640   9.070 -0.1022 -0.2776  0.1565
    1W        W37901   3.837  17.524   9.258  0.1607 -0.3930  0.1854
    1W        W37902   1.538  23.340   5.987 -0.0797 -0.1816 -0.0135
    1W        W37903  14.752  20.904   2.192  0.0499  0.4801  0.4520
    1W        W37904   4.718  14.629   1.132  0.1283 -0.1844 -0.1413
    1W        W37905  18.462  20.762   2.041 -0.2138 -0.2678 -0.0435
    1W        W37906   1.096  16.960   0.585  0.0813  0.1635 -0.2780
    1W        W37907   6.084  11.538   6.670 -0.2512  0.1460  0.1199
    1W        W37908  15.901  18.940   8.579  0.0294 -0.0348 -0.0062
    1W        W37909  14.823   4.431   4.072 -0.0625  0.0822 -0.2755
    1W        W37910  21.420  22.297   6.892  0.1185  0.2023 -0.0836
    1W        W37911   6.364   6.991   0.337  0.0896 -0.0070 -0.2114
    1W        W37912   6.519  26.543   6.721  0.0744  0.2388 -0.1863
    1W        W37913  26.753   4.697   0.122 -0.1744  0.0655  0.0959
    1W        W37914  28.965   1.399   1.992 -0.0158  0.1634  0.0207
    1W        W37915   0.612  27.908   7.594  0.1760 -0.0987  0.2329
    1W        W37916  25.821  29.328   0.577  0.1381 -0.1154 -0.1600
    1W        W37917  14.815   1.254   8.331  0.0722  0.2063 -0.2381
    1W        W37918  14.737  25.974   7.875 -0.2392  0.0413  0.0549
    1W        W37919  26.875   5.500   2.217 -0.0305  0.1800  0.0570
    1W        W37920  24.301  25.467   8.016  0.4815  0.1912 -0.3916
    1W        W37921   3.122  23.599   1.751 -0.0553 -0.1343 -0.1399
    1W        W37922   8.625   4.045   0.053 -0.0083 -0.0425  0.4226
    1W        W37923  20.872  20.368   5.857 -0.0943 -0.0731  0.0737
    1W        W37924  12.565   5.754   1.038 -0.1425 -0.1448  0.2584
    1W        W37925   8.147  12.537   7.529 -0.1386 -0.1462 -0.2090
    1W        W37926   1.974  16.458   7.136 -0.0100  0.3144  0.0153
    1W        W37927  19.485  21.624   1.370  0.0742  0.0369 -0.0548
    1W        W37928  24.645   9.928   6.373  0.1366 -0.2441  0.0326
    1W        W37929  17.743  23.006   7.773  0.0263 -0.2141 -0.0131
    1W        W37930  22.386   8.888   7.541 -0.1041  0.0293 -0.1114
    1W        W37931  10.019  20.642   6.570 -0.2213 -0.1589  0.0387
    1W        W37932  16.855   5.751   1.941 -0.1183 -0.2429 -0.0769
    1W        W37933  22.507   0.148   2.571  0.0075 -0.0243 -0.0719
    1W        W37934   3.023  22.461   5.128 -0.4228  0.1837 -0.2208
    1W        W37935  12.750  20.225   8.151  0.0358 -0.1689 -0.0137
    1W        W37936  26.440  17.862   7.200 -0.0751  0.0375 -0.0070
    1W        W37937  18.329  23.746   1.805  0.0732  0.0102 -0.1304
    1W        W37938   8.748   0.906   1.903 -0.1024 -0.1708  0.2259
    1W        W37939  10.672   7.266   9.131  0.2126 -0.2124  0.0069
    1W        W37940   9.141   3.543   2.236 -0.1286 -0.0522 -0.0026
    1W        W37941  28.205   1.909   8.728 -0.0471  0.0450  0.0737
    1W        W37942   0.340   9.608   6.665  0.1511  0.0091  0.2108
    1W        W37943   4.420   7.949   6.623 -0.0335 -0.1700  0.1041
    1W        W37944  25.187  29.057   6.710 -0.1765  0.3407  0.1293
    1W        W37945   2.884  25.834   8.261  0.3498 -0.0399 -0.0614
    1W        W37946   2.746  24.880   5.322  0.1185 -0.0970  0.2049
    1W        W37947   4.957  17.018   7.620  0.2032  0.2614  0.0856
    1W        W37948  17.472   1.312   1.126 -0.0952  0.0278 -0.0856
    1W        W37949  22.702  17.272   0.897 -0.1231  0.0000  0.0914
    1W        W37950  10.762  21.982   9.114 -0.0437  0.1577 -0.2131
    1W        W37951  20.985  11.544   7.213  0.0514  0.0321  0.2063
    1W        W37952  18.194   3.842   8.569 -0.2818 -0.1512 -0.1329
    1W        W37953   1.888  20.659   7.188  0.1722  0.0157  0.0771
    1W        W37954   2.813  16.030   7.348 -0.0519  0.1039  0.2791
    1W        W37955  23.431  29.062   7.340 -0.2837 -0.0698 -0.0288
    1W        W37956  21.313  20.519   6.454  0.2570  0.5174  0.1324
    1W        W37957   0.547   6.290   6.763 -0.0711  0.0568  0.1316
    1W        W37958  11.738  15.089   7.650 -0.1024 -0.0760  0.0156
    1W        W37959   5.846  14.354   7.044  0.1058  0.4604 -0.3696
    1W        W37960  12.419   8.570   7.244  0.1677  0.0460 -0.0534
    1W        W37961  10.892   3.614   8.276 -0.1769 -0.0600  0.2402
    1W        W37962  14.973  20.747   7.381  0.0358  0.1346  0.2605
    1W        W37963  24.993  19.150   0.504 -0.0292 -0.0366 -0.2434
    1W        W37964  29.452  11.900   7.612  0.2183 -0.0485  0.2740
    1W        W37965  11.870   2.725   9.125 -0.0178  0.0242 -0.0497
    1W        W37966  19.003  13.801   7.297  0.0171  0.1218 -0.1934
    1W        W37967   6.432   6.719   0.851 -0.1243 -0.2653  0.1845
    1W        W37968  19.206  21.246   2.463 -0.0900 -0.1270 -0.1126
    1W        W37969  16.342  21.281   0.502  0.5134 -0.0814  0.1415
    1W        W37970   1.090  11.483   0.322 -0.2388 -0.0247  0.1620
    1W        W37971   4.873  17.032   1.853  0.0700 -0.2776 -0.2930
    1W        W37972  11.834  12.590   2.119  0.0834 -0.1113  0.4656
    1W        W37973  26.614   9.919   2.029  0.1680  0.3392 -0.0764
    1W        W37974   4.048   4.101   1.223 -0.2856 -0.2468  0.4229
    1W        W37975  12.559  22.059   8.061 -0.0149 -0.2138 -0.2384
    1W        W37976   9.565  24.803   2.684  0.0154  0.1812  0.4198
    1W        W37977  29.045   6.143   9.292 -0.1259 -0.4054  0.1582
    1W        W37978   8.107  18.338   1.411 -0.1312 -0.4313 -0.1124
    1W        W37979  21.131  27.650   7.873 -0.1113  0.3073  0.0430
    1W        W37980  21.271  25.805   7.013  0.0721  0.3221 -0.1949
    1W        W37981  21.586   1.071   2.822  0.1376  0.0144  0.0800
    1W        W37982  19.981  27.495   0.647  0.1479 -0.0032  0.1767
    1W        W37983  18.261   2.797   8.502  0.4163 -0.0479 -0.0500
    1W        W37984   4.951   5.438   1.689  0.3274 -0.4450  0.3289
    1W        W37985  18.452  16.757   7.798  0.1470  0.0101  0.0009
    1W        W37986  27.009   1.616   8.673  0.4160 -0.3066  0.1440
    1W        W37987   0.770   6.481   0.135  0.0635 -0.2874  0.0341
    1W        W37988  12.966   6.679   1.921  0.1316 -0.1167 -0.2751
    1W        W37989   6.711  11.636   1.591  0.0532 -0.2077  0.5065
    1W        W37990  16.594  29.714   1.388 -0.1678 -0.1167  0.1961
    1W        W37991  14.715  19.582   0.736  0.0095 -0.0534 -0.2960
    1W        W37992  11.646   9.636   3.392 -0.0250  0.2873 -0.2436
    1W        W37993   1.556  18.950   7.197 -0.2081  0.0070  0.1924
    1W        W37994   6.665   8.290   8.440  0.0757 -0.3869  0.0396
    1W        W37995  17.885  24.130   1.990 -0.1869 -0.1507  0.0103
    1W        W37996  17.827  20.215   0.381  0.1842  0.0673 -0.0532
    1W        W37997   8.269  17.827   1.894  0.0855  0.1103 -0.0034
    1W        W37998   5.662  25.873   0.777  0.1168 -0.0229 -0.1241
    1W        W37999   3.447  22.732   2.497 -0.1280  0.0890 -0.0624
    1W        W38000   9.817  14.666   8.266 -0.1982  0.1727  0.1049
    1W        W38001  28.088  10.973   8.168  0.2439 -0.0205  0.3006
    1W        W38002   0.220  27.093   0.415 -0.2110 -0.0111 -0.2157
    1W        W38003   2.582  27.294   6.589  0.1984 -0.2243 -0.0625
    1W        W38004  11.215  12.178   0.910 -0.2824 -0.0273 -0.1070
    1W        W38005  12.621   0.167   0.422  0.0202 -0.2095  0.0960
    1W        W38006  11.376   6.499   2.910  0.1945 -0.2163 -0.3473
    1W        W38007   7.585   0.596   1.325  0.3087 -0.1399  0.0726
    1W        W38008   4.358  19.766   0.567  0.1304  0.0820  0.1085
    1W        W38009  29.265  13.865   6.473  0.3085 -0.1952 -0.0858
    1W        W38010  17.060  16.418   1.117 -0.2951  0.1110 -0.0060
    1W        W38011  21.388  30.068   0.978  0.1432 -0.0043  0.1550
    1W        W38012  26.567  28.249   1.371  0.3463 -0.3256 -0.1202
    1W        W38013  27.078  28.095   1.952  0.1775 -0.1194  0.0443
    1W        W38014   9.853  21.622   8.117 -0.1176 -0.0754 -0.2020
    1W        W38015  22.031   6.772   6.865 -0.2923 -0.2070  0.1416
    1W        W38016   9.461  19.461   9.338  0.2465  0.2920  0.0946
    1W        W38017  14.159  22.458   7.168 -0.0838 -0.0644 -0.1361
    1W        W38018   5.646  17.724   6.867  0.1994 -0.0183  0.0950
    1W        W38019  22.182  21.637   1.495 -0.0604  0.0161 -0.2372
    1W        W38020  24.726  25.311   6.883  0.0171 -0.0100  0.1660
    1W        W38021   8.701  15.605   7.560  0.2032  0.0052  0.1912
    1W        W38022  19.132  17.847   9.377 -0.1066 -0.2377 -0.1567
    1W        W38023  12.822   1.004   1.823  0.2744  0.0440 -0.1499
    1W        W38024  24.146  23.793   6.963  0.0034  0.1790 -0.0550
    1W        W38025  22.977  20.655   0.153 -0.0773 -0.1696 -0.0541
    1W        W38026  29.940  20.047   6.676  0.1924 -0.0911 -0.1107
    1W        W38027   3.907   9.449   7.238  0.1925 -0.1592  0.1974
    1W        W38028  13.407   8.966   8.134 -0.3757  0.1008  0.0067
    1W        W38029  13.154  29.231   7.343  0.1100  0.1170 -0.0305
    1W        W38030  20.281  14.086   8.880 -0.0027 -0.1820  0.0178
    1W        W38031   0.280  24.378   6.901 -0.0277 -0.1602  0.1288
    1W        W38032   5.246  11.767   7.253 -0.0240 -0.2294 -0.0263
    1W        W38033  15.959  25.986   1.061  0.2005  0.1392  0.0504
    1W        W38034  16.884  28.310   7.858 -0.0905  0.0104 -0.2018
    1W        W38035   3.233   2.585   7.435  0.0697  0.1880 -0.2151
    1W        W38036   6.738   3.014   8.594  0.1799 -0.2247  0.1862
    1W        W38037  17.670   5.313   7.519 -0.2577 -0.0495  0.1254
    1W        W38038  27.448  27.489   7.667 -0.0983 -0.0454 -0.0970
    1W        W38039   5.103   0.585   8.359  0.0478 -0.1276 -0.1418
    1W        W38040   7.151  14.127   0.596 -0.0791 -0.2300  0.1782
    1W        W38041  16.175  29.709   3.691 -0.2710  0.0185  0.0428
    1W        W38042  21.528   9.829   1.764  0.1180  0.2759 -0.2697
    1W        W38043  22.367   8.208   2.023  0.3233 -0.2285 -0.2343
    1W        W38044  30.044  23.934   6.839  0.3306  0.1890 -0.1930
    1W        W38045  11.891   7.199   2.854  0.0831  0.1238  0.2129
    1W        W38046  22.655  21.553   0.220 -0.1628  0.0167  0.1102
    1W        W38047   4.375  11.013   0.271 -0.0447  0.3363 -0.2020
    1W        W38048  21.483  29.760   8.133 -0.0098  0.0276 -0.1647
    1W        W38049   6.740  21.993   2.503 -0.1173 -0.0511  0.0288
    1W        W38050   2.462  11.351   7.095  0.2136 -0.1224 -0.0109
    1W        W38051  26.853  10.753   6.682 -0.0816  0.4189 -0.2415
    1W        W38052  16.952   3.666   8.299 -0.0572  0.2329  0.2585
    1W        W38053  14.773  15.506   8.986  0.1027 -0.1437  0.3310
    1W        W38054  30.134  14.434   8.066  0.0094  0.1451 -0.0138
    1W        W38055  28.262  13.864   1.309 -0.2379 -0.1071 -0.5017
    1W        W38056  27.933  27.966   1.421 -0.0094 -0.1232  0.0493
    1W        W38057  15.690  26.601   8.811 -0.1034  0.1039 -0.0343
    1W        W38058   3.480  26.176   0.586  0.0664 -0.0346  0.4637
    1W        W38059  18.144  25.307   6.805  0.1599 -0.2130  0.2635
    1W        W38060  23.875  29.005   7.962  0.0706 -0.2173 -0.2501
    1W        W38061   0.514   4.791   7.572  0.2687 -0.0673  0.0006
    1W        W38062  12.785  29.836   2.518 -0.0556  0.1613 -0.0524
    1W        W38063   4.192   0.432   0.513 -0.2670  0.0178 -0.2329
    1W        W38064  27.688  15.813   5.773 -0.1599  0.0196 -0.1653
    1W        W38065   4.963  11.095   8.977  0.2000 -0.1139  0.1488
    1W        W38066   6.979   5.919   2.034  0.0509 -0.2410 -0.0458
    1W        W38067  16.679  10.882   8.478 -0.0822  0.1502  0.1704
    1W        W38068   3.376  28.465   3.364 -0.3504 -0.0323 -0.0609
    1W        W38069  23.265  21.579   8.643  0.0875  0.3263  0.1957
    1W        W38070  24.044   8.189   8.628 -0.3896  0.3107 -0.0476
    1W        W38071  24.395  29.497   2.199 -0.2830 -0.0106 -0.0320
    1W        W38072  26.293   9.616   7.512 -0.0320  0.0007 -0.2028
    1W        W38073  27.287   5.123   1.815  0.1950  0.0728 -0.0961
    1W        W38074  20.266   2.831   0.114 -0.1637 -0.2657  0.0132
    1W        W38075  11.157  28.506   8.751  0.0783  0.0628 -0.4116
    1W        W38076   0.182  29.828   2.187  0.0222  0.2030 -0.1316
    1W        W38077   9.951  30.087   0.749 -0.1559  0.1642  0.1639
    1W        W38078   1.570  19.349   8.384 -0.1478 -0.1127  0.1899
    1W        W38079   5.249  20.261   5.498 -0.1380 -0.0277  0.0055
    1W        W38080  13.504   9.969   7.941  0.3176 -0.2306 -0.0576
    1W        W38081  21.023  19.408   0.587  0.2642  0.1819 -0.0574
    1W        W38082   9.021  14.764   0.564 -0.1583  0.1296  0.0268
    1W        W38083  28.130  19.249   6.403 -0.0845 -0.2197  0.0906
    1W        W38084  23.760   5.702   0.721  0.2498 -0.0103 -0.3778
    1W        W38085  16.848  11.540   9.103 -0.0035 -0.1964 -0.0415
    1W        W38086  17.989  27.539   2.061  0.1147  0.2286  0.1307
    1W        W38087  23.241  14.144   0.052  0.0522 -0.2415  0.0321
    1W        W38088  19.070   1.211   8.795 -0.1945 -0.1561  0.1015
    1W        W38089  11.893   8.573   2.847  0.0017  0.2426  0.0124
    1W        W38090  17.719  12.799   0.294 -0.4576  0.1965  0.3139
    1W        W38091  30.096   0.378   8.015  0.1268 -0.2821 -0.0366
    1W        W38092  28.069   3.700   1.081 -0.2737 -0.0000  0.0658
    1W        W38093  13.170   3.866   3.469 -0.1925 -0.0251 -0.1526
    1W        W38094  23.140  17.678   0.140  0.2103  0.0293 -0.1342
    1W        W38095  11.971   3.832   7.904  0.1670 -0.1411  0.1007
    1W        W38096  19.723  13.535   0.860 -0.0367  0.4277 -0.1826
    1W        W38097  22.041  28.033   7.090 -0.2935 -0.0043  0.0993
    1W        W38098   9.802   5.847   0.373  0.0779  0.3246  0.1862
    1W        W38099  13.290  25.019   6.416  0.0015  0.2500 -0.2740
    1W        W38100  18.249   4.740   2.305  0.1274  0.0396  0.0439
    1W        W38101  23.550   7.519   0.259  0.0021  0.0724  0.2298
    1W        W38102  18.830   6.354   7.476 -0.0412 -0.0535 -0.0002
    1W        W38103   3.107   1.887   8.031 -0.0869  0.1656  0.1207
    1W        W38104   4.114  21.463   9.237  0.2581 -0.0163 -0.0520
    1W        W38105  11.816   1.242   1.400  0.0771  0.3053 -0.0133
    1W        W38106  26.415   9.321   8.755 -0.0053 -0.0300  0.0421
    1W        W38107  25.631   4.373   0.651  0.0118  0.2229  0.0300
    1W        W38108  11.947  29.577   6.819  0.1551 -0.0197  0.2236
    1W        W38109  20.000  29.450   6.911  0.1340  0.0634  0.0017
    1W        W38110   2.516  25.608   6.824 -0.4050  0.4063 -0.0692
    1W        W38111  19.682  11.076   7.063  0.3653 -0.3871  0.0286
    1W        W38112  23.659  14.368   1.590  0.1009 -0.2563  0.0121
    1W        W38113  26.876  28.614   8.577 -0.1929  0.1248 -0.2768
    1W        W38114  27.152  13.086   1.955 -0.3438 -0.1850  0.3095
    1W        W38115  12.412   8.571   2.711 -0.0686 -0.0479 -0.1108
    1W        W38116   3.562  24.154   6.033  0.0675  0.1763  0.0465
    1W        W38117  12.143   9.454   2.145  0.3128 -0.1588  0.0716
    1W        W38118  22.994   4.948   2.126 -0.0056 -0.0015 -0.0535
    1W        W38119  19.354   6.185   2.393  0.2737  0.2350  0.2512
    1W        W38120  16.840  25.678   2.185  0.0538  0.4099 -0.3836
    1W        W38121  25.715   1.820   0.101  0.0223 -0.0957 -0.0813
    1W        W38122   7.258   2.698   2.058 -0.0870 -0.0090 -0.1872
    1W        W38123  11.911  10.371   2.829  0.1403 -0.1557 -0.0509
    1W        W38124   5.327   7.794   0.790  0.1532 -0.0858  0.0310
    1W        W38125  24.040  10.706   0.204 -0.1119 -0.0344 -0.3580
    1W        W38126  16.194  17.549   1.794 -0.1725  0.1142  0.2270
    1W        W38127  14.869  12.405   8.458 -0.0453  0.1032 -0.2479
    1W        W38128  27.261  22.535   1.140  0.2001  0.3768  0.0664
    1W        W38129   3.478  28.306   8.204 -0.0030  0.1439  0.1753
    1W        W38130  27.448  22.974   8.421  0.0367  0.0560  0.0485
    1W        W38131  19.228  18.220   8.899  0.1899  0.1011  0.1314
    1W        W38132   4.862  26.671   9.362  0.0307 -0.1661 -0.0575
    1W        W38133  26.946  17.170   7.333  0.0922  0.0365 -0.4056
    1W        W38134  21.354  15.619   6.695 -0.2159  0.2117 -0.1635
    1W        W38135  29.445  18.062   7.640  0.3164 -0.4245  0.2037
    1W        W38136   1.673   4.124   2.695  0.2727  0.1582  0.3792
    1W        W38137  17.099   8.747   9.277  0.2950  0.2791  0.0152
    1W        W38138  15.767  24.864   7.710  0.0403 -0.0525  0.2628
    1W        W38139   6.736  11.274   0.689 -0.0388  0.1676 -0.1371
    1W        W38140  23.389   0.019   8.123  0.0418 -0.3275  0.1530
    1W        W38141  21.088   3.584   7.870 -0.0979  0.2341 -0.1192
    1W        W38142   4.294  17.764   7.864  0.2031 -0.1712  0.2228
    1W        W38143  24.746   1.874   2.114  0.0476 -0.0683  0.4494
    1W        W38144  29.844   5.184   0.869 -0.1097  0.1651 -0.0561
    1W        W38145  23.749  16.380   0.742 -0.1991  0.1126 -0.1019
    1W        W38146  12.786  25.648   3.260  0.0407 -0.0387  0.1347
    1W        W38147  19.463   7.101   8.914  0.2521  0.0140  0.3317
    1W        W38148  14.360   4.088   3.084  0.2832 -0.1285  0.1704
    1W        W38149   5.304   7.501   8.325  0.0723  0.1679 -0.1944
    1W        W38150  13.181   4.255   2.646  0.3352  0.1737 -0.4150
    1W        W38151   1.233   1.554   0.429  0.2447  0.0466 -0.1389
    1W        W38152   5.272  16.378   7.126  0.0784  0.1042 -0.0744
    1W        W38153  21.262  26.694   2.762  0.3147  0.1363  0.0565
    1W        W38154  20.850  23.296   0.977  0.0707 -0.0995 -0.2230
    1W        W38155  15.407   6.973   0.219 -0.0499  0.0876 -0.5703
    1W        W38156  26.011  14.584   0.014  0.0827 -0.0984  0.0705
    1W        W38157   8.532  10.206   1.359 -0.1593  0.2635  0.0860
    1W        W38158  23.776  11.783   1.597  0.2604  0.1790 -0.0845
    1W        W38159  29.526   3.186   0.196  0.2237  0.2454 -0.0138
    1W        W38160  17.352  12.307   0.299 -0.0721  0.1702 -0.0027
    1W        W38161  17.676   8.128   8.116 -0.1080 -0.2211  0.1315
    1W        W38162  29.141   2.303   2.978 -0.0193 -0.0550  0.1230
    1W        W38163  25.904   3.739   7.926 -0.3639  0.0864 -0.4161
    1W        W38164  25.867   8.350   8.922 -0.0932 -0.3264  0.1014
    1W        W38165  14.786   9.229   8.359 -0.2993 -0.0246  0.2411
    1W        W38166  25.245  21.999   0.312 -0.0190  0.1333  0.0587
    1W        W38167  22.590  20.028   1.720  0.0747 -0.0148  0.0460
    1W        W38168  26.831  29.182   8.328  0.0874 -0.1745 -0.2202
    1W        W38169  24.039  24.125   2.339 -0.1788  0.2724  0.0262
    1W        W38170  30.150  22.793   8.458 -0.1871 -0.3208 -0.1787
    1W        W38171   6.712  26.679   1.513  0.1553  0.2353 -0.2156
    1W        W38172  16.048  21.531   2.737  0.3102  0.3273 -0.1109
    1W        W38173   6.171   4.872   9.032  0.0588 -0.1792  0.0261
    1W        W38174  12.262   8.379   9.029 -0.2795 -0.0684  0.2560
    1W        W38175   2.459  17.729   0.436 -0.3298 -0.3828  0.4520
    1W        W38176  26.018   8.389   0.512 -0.0941  0.2251 -0.1915
    1W        W38177  20.439  18.022   7.621 -0.2841  0.1633 -0.1709
    1W        W38178  22.445   2.872   2.512 -0.0446 -0.0483  0.1904
    1W        W38179  21.016  12.967   0.558 -0.0799 -0.1114 -0.1498
    1W        W38180  14.203  10.935   0.821 -0.1398  0.2459 -0.0619
    1W        W38181  23.025  24.502   1.672 -0.1142  0.0529  0.0525
    1W        W38182  14.196  24.132   6.774 -0.1099 -0.3849 -0.4391
    1W        W38183  23.654   4.096   8.283  0.0493  0.0216 -0.0773
    1W        W38184  22.636   2.928   8.041 -0.0231  0.0263  0.4254
    1W        W38185  23.883   8.219   7.417  0.1546  0.0013 -0.2013
    1W        W38186   9.407   7.466   1.357 -0.0770  0.1895  0.1667
    1W        W38187  21.985  21.523   1.959  0.2107  0.0677  0.0558
    1W        W38188   3.917   2.677   8.496 -0.0496 -0.0681 -0.4437
    1W        W38189  21.642   2.624   6.168 -0.6856  0.0311  0.0343
    1W        W38190  23.759   0.802   0.853  0.3023  0.1121 -0.0353
    1W        W38191  20.065   6.489   0.304 -0.0413 -0.0477  0.0823
    1W        W38192  12.547  22.108   7.089  0.1367 -0.1456 -0.0912
    1W        W38193  15.579   6.559   2.991 -0.2658 -0.0121  0.1642
    1W        W38194  18.618  17.324   7.707  0.1001 -0.0997 -0.0185
    1W        W38195  27.879  14.756   1.952  0.0341 -0.0144 -0.1050
    1W        W38196   2.282  20.644   6.863 -0.0514 -0.0075  0.1497
    1W        W38197  22.340  14.427   7.705  0.0120  0.1126 -0.1543
    1W        W38198   9.643  27.228   9.085  0.0491  0.3150 -0.1143
    1W        W38199   8.309  14.639   8.742 -0.2263  0.0730  0.0907
    1W        W38200   9.125  19.360   1.014  0.2130 -0.1505 -0.0886
    1W        W38201  21.594   9.773   2.605  0.2379 -0.2160  0.2197
    1W        W38202   0.442   3.557   1.119 -0.0267 -0.2180  0.0436
    1W        W38203   2.191  14.272   8.926 -0.1152  0.0580  0.0018
    1W        W38204   7.890   0.157   7.192  0.1651  0.1043 -0.2590
    1W        W38205  27.694  24.473   8.746 -0.0647  0.0758 -0.1961
    1W        W38206  27.156  14.152   6.651  0.0826 -0.0430  0.0146
    1W        W38207  14.725  26.742   8.132  0.2303 -0.0531 -0.0144
    1W        W38208  26.031  26.046   7.863 -0.2465 -0.1097 -0.1277
    1W        W38209  15.712  20.122   8.957  0.1065 -0.2451  0.2646
    1W        W38210   5.403  23.540   5.919  0.1793  0.0628  0.0261
    1W        W38211  20.607  27.398   1.945 -0.1357  0.1676 -0.0952
    1W        W38212   7.346  23.720   0.441 -0.0693  0.1607 -0.3136
    1W        W38213  10.812  10.428   2.150 -0.0498 -0.3626  0.0968
    1W        W38214   3.473   7.506   8.096  0.1200 -0.2153 -0.0003
    1W        W38215   3.297  29.335   2.396 -0.0015 -0.0042 -0.1546
    1W        W38216   8.932   5.562   3.288  0.1226 -0.0129  0.0937
    1W        W38217   8.950  12.090   2.936  0.0236 -0.1406 -0.2869
    1W        W38218  10.408  13.573   1.015  0.3297 -0.2275  0.1147
    1W        W38219  16.536   1.115   0.049 -0.2033  0.2197  0.3240
    1W        W38220  19.013  28.126   7.803  0.3161  0.2821 -0.3245
    1W        W38221   0.642   2.905   3.149  0.1178  0.2148 -0.1379
    1W        W38222   6.322   8.730   8.717 -0.1231 -0.4953 -0.0911
    1W        W38223   4.269  22.289   7.369  0.2796 -0.1464 -0.0826
    1W        W38224  12.302  24.328   6.861  0.3462  0.0956  0.2397
    1W        W38225   2.046  18.727   7.525 -0.2419 -0.1502  0.0429
    1W        W38226   8.027  12.165   7.231  0.1624 -0.1520  0.3404
    1W        W38227  24.241   9.334   7.066 -0.4255 -0.1275  0.0549
    1W        W38228  10.803  19.150   7.993 -0.1030  0.0237 -0.0603
    1W        W38229   6.468  19.874   1.334 -0.0419  0.0315 -0.0255
    1W        W38230  18.861   4.606   2.876  0.1846 -0.0489 -0.2340
    1W        W38231  17.182  22.424   2.217  0.1216  0.2889  0.3659
    1W        W38232  27.680  28.050   8.618  0.1131  0.0871 -0.0185
    1W        W38233  18.596   1.307   6.567  0.0091 -0.3763 -0.1322
    1W        W38234  28.231  22.771   7.203 -0.1664 -0.0798 -0.1355
    1W        W38235   5.471  15.244   0.848 -0.1136  0.1652  0.1298
    1W        W38236   4.435   6.140   0.343  0.0682  0.0028 -0.0930
    1W        W38237  24.873   4.239   0.368 -0.0414  0.0217  0.1802
    1W        W38238  16.612  24.083   9.071 -0.2522  0.1785  0.0940
    1W        W38239   2.616   6.393   2.988 -0.3232  0.1898 -0.2910
    1W        W38240  12.692   5.490   2.312 -0.0198  0.2213 -0.3111
    1W        W38241  10.989  22.264   8.164  0.0485 -0.1559  0.0628
    1W        W38242  29.981  19.780   1.597 -0.0684 -0.1013  0.4768
    1W        W38243   1.725  18.575   0.413 -0.1006  0.0803  0.1258
    1W        W38244  14.945  14.814   2.014  0.1160 -0.1092  0.0463
    1W        W38245  20.987  22.644   8.429 -0.4261  0.1264  0.0878
    1W        W38246   0.401  16.531   6.635 -0.1363  0.1506  0.2535
    1W        W38247   7.175  26.912   0.169  0.5944  0.0624  0.0288
    1W        W38248  24.067   2.203   0.315 -0.1241  0.0876 -0.0332
    1W        W38249  23.267   3.235   8.959  0.2006  0.0144 -0.2363
    1W        W38250   5.631  26.636   7.563 -0.1420 -0.0784  0.2786
    1W        W38251  12.693   6.702   0.563 -0.0037 -0.1066  0.3215
    1W        W38252   8.149  27.566   9.299 -0.0430  0.3305 -0.2028
    1W        W38253  26.295   5.293   2.017 -0.0942  0.1606 -0.0240
    1W        W38254  15.551   2.670   3.513 -0.1972  0.0166  0.1594
    1W        W38255  17.062  24.754   1.993 -0.1488  0.3619  0.0834
    1W        W38256  28.295  15.109   8.835  0.1415 -0.1678 -0.1928
    1W        W38257  18.144   6.342   8.878 -0.2006  0.2021  0.0503
    1W        W38258  20.882  24.940   1.817 -0.2677 -0.0062 -0.0159
    1W        W38259  12.905  28.698   7.946  0.2345 -0.3755  0.3069
    1W        W38260   5.199  20.803   7.898 -0.2790 -0.0440  0.0690
    1W        W38261   7.495  21.655   0.420 -0.2103  0.3183  0.0776
    1W        W38262  26.565   2.350   0.121 -0.0203  0.2627  0.0705
    1W        W38263   8.973  10.056   8.811 -0.1060 -0.1821  0.1875
    1W        W38264  25.236  24.511   6.691 -0.0664 -0.3366  0.1479
    1W        W38265  26.677  15.221   0.734  0.0673  0.0565  0.1536
    1W        W38266   8.771   6.382   7.770 -0.0209  0.1873  0.0999
    1W        W38267  29.236  10.424   6.517 -0.0172 -0.0662  0.0467
    1W        W38268  23.144   5.603   7.515  0.1110  0.0613 -0.1612
    1W        W38269  12.870   0.337   2.529 -0.1554  0.2645  0.2197
    1W        W38270  24.893   5.133   7.484  0.3832  0.0721  0.2247
    1W        W38271  18.480   7.901   8.943  0.0417 -0.0158 -0.0729
    1W        W38272   9.336   9.676   1.577 -0.0386 -0.2064 -0.0765
    1W        W38273   7.850   1.722   1.994 -0.0057  0.3524 -0.3715
    1W        W38274  23.578  12.941   7.143 -0.0590  0.1854  0.0150
    1W        W38275  17.408   6.322   3.075  0.1708 -0.1405 -0.2891
    1W        W38276  14.859  28.518   9.090  0.2812  0.0614  0.1236
    1W        W38277   8.134  19.190   7.881 -0.2227 -0.1816 -0.0718
    1W        W38278  23.644   3.898   7.729 -0.0507 -0.0019  0.0653
    1W        W38279  23.680  10.846   6.471  0.1180 -0.1490  0.1398
    1W        W38280  28.374  24.317   8.412 -0.1931  0.0283  0.2126
    1W        W38281   8.227  17.395   0.558  0.1091 -0.2118 -0.0463
    1W        W38282  17.439   9.012   0.681  0.0684  0.0383 -0.0403
    1W        W38283  12.905  30.089   3.083 -0.0428  0.1389 -0.1000
    1W        W38284  23.697  22.635   8.324 -0.1686  0.2427 -0.2377
    1W        W38285  21.680   8.015   7.053  0.0239  0.0871  0.1722
    1W        W38286  15.919   1.381   0.704  0.2286 -0.1025  0.0066
    1W        W38287  27.121  14.327   1.424 -0.1564 -0.0127  0.1381
    1W        W38288  14.431   9.537   1.710  0.0068  0.2110 -0.0363
    1W        W38289  20.954  28.546   6.713 -0.2501  0.3121  0.0396
    1W        W38290  16.242  28.222   6.466  0.0634 -0.2792 -0.0299
    1W        W38291  20.732   9.487   1.213 -0.0620 -0.1503 -0.2194
    1W        W38292  13.404   6.423   7.638 -0.3150  0.0352  0.0321
    1W        W38293  13.200  10.441   2.292 -0.0863  0.1866  0.1380
    1W        W38294   3.898   8.288   7.394  0.1704  0.0623  0.0239
    1W        W38295  20.394  24.068   0.098  0.0191 -0.1912 -0.1499
    1W        W38296  19.767  26.898   1.481  0.1400  0.0148 -0.2146
    1W        W38297  24.852   0.346   1.271 -0.4648 -0.0115 -0.0373
    1W        W38298   4.933  10.019   3.004 -0.3111  0.3922  0.1068
    1W        W38299  12.819  16.835   7.436  0.1035  0.3842  0.0090
    1W        W38300   7.584  10.974   2.851  0.3037  0.0878  0.0099
    1W        W38301  28.904  28.528   8.970  0.1865 -0.0153 -0.0808
    1W        W38302   0.920  17.340   6.845 -0.4846 -0.1546  0.3816
    1W        W38303   9.789   4.872   0.209  0.2160 -0.1379 -0.1268
    1W        W38304   0.843  11.058   1.491  0.0025  0.1130  0.1498
    1W        W38305   3.451  19.624   5.829  0.1550 -0.0200  0.7189
    1W        W38306  23.075   1.108   2.708 -0.2582  0.2502 -0.3950
    1W        W38307  12.992  12.022   1.885  0.0683 -0.0366 -0.1409
    1W        W38308  21.509  26.602   8.528 -0.2987  0.0814  0.3239
    1W        W38309  17.985  21.937   6.910 -0.0541  0.2238 -0.2049
    1W        W38310  10.843   6.813   9.388 -0.0915 -0.2578  0.1321
    1W        W38311  11.021  19.564   8.176 -0.0522  0.3614 -0.2177
    1W        W38312  24.790  22.151   1.643  0.0245  0.2209 -0.0526
    1W        W38313   5.976   8.424   8.978 -0.1653  0.0020 -0.2826
    1W        W38314   9.126  19.702   6.898 -0.1486 -0.1070  0.1420
    1W        W38315  20.983  28.645   1.696 -0.2315  0.1556  0.0467
    1W        W38316  20.636   3.300   1.959 -0.5444 -0.0160  0.0320
    1W        W38317  20.456  21.071   7.905 -0.2463 -0.2375 -0.4052
    1W        W38318  16.533  15.558   7.917  0.0637  0.2029 -0.2175
    1W        W38319   4.314   1.499   2.781  0.0823  0.1438 -0.1807
    1W        W38320  22.543   5.626   2.210  0.1163  0.4196  0.0007
    1W        W38321   2.431  19.910   8.149  0.1074  0.1122  0.5113
    1W        W38322  23.434  28.270   6.780 -0.1696  0.3024  0.1985
    1W        W38323  20.610  20.413   8.217  0.0464 -0.1340 -0.0701
    1W        W38324  20.037  15.425   6.288 -0.0363 -0.0879  0.2173
    1W        W38325  25.358   6.509   7.296 -0.1105  0.3254 -0.0911
    1W        W38326  29.437   2.517   8.259 -0.1036 -0.1097 -0.3919
    1W        W38327  19.661   3.439   2.056  0.0814 -0.2830 -0.0787
    1W        W38328  22.750   1.253   0.738  0.1406  0.2613  0.1367
    1W        W38329  15.122  22.832   6.929 -0.0656 -0.2509  0.1450
    1W        W38330  25.938  14.168   9.148 -0.3022  0.1544 -0.2533
    1W        W38331   0.087  23.266   8.633 -0.2428 -0.1845  0.3283
    1W        W38332  17.322  25.432   8.228 -0.1660 -0.0043 -0.1585
    1W        W38333  12.509  27.442   7.078 -0.2772  0.2963  0.1949
    1W        W38334   2.180  25.307   7.774 -0.1731  0.1224  0.0266
    1W        W38335  21.788  20.126   1.108  0.0238  0.0321 -0.1722
    1W        W38336  27.054   1.335   1.003  0.1754 -0.2253  0.2020
    1W        W38337   9.101  25.130   8.629  0.0404  0.0794  0.1466
    1W        W38338  24.347   3.885   1.938  0.2490  0.2159  0.1156
    1W        W38339  27.743   6.180   8.911 -0.1020  0.1136  0.2535
    1W        W38340  15.864   4.440   0.352  0.1112  0.1054 -0.1996
    1W        W38341  14.707  13.273   0.791  0.1697 -0.0732  0.1079
    1W        W38342   6.825  20.105   0.719 -0.0102  0.4115  0.3523
    1W        W38343  28.113  30.059   8.147  0.0458  0.0115  0.0481
    1W        W38344  24.490   1.849   1.714  0.1986 -0.1746  0.0407
    1W        W38345   0.374  17.908   7.572 -0.1913  0.0730 -0.2152
    1W        W38346  20.977   7.802   0.770 -0.0557  0.4053 -0.5761
    1W        W38347  14.582   0.699   3.579 -0.0057 -0.3408  0.0912
    1W        W38348  28.580  29.502   7.007  0.2691  0.0936 -0.2961
    1W        W38349   8.820  21.611   1.555 -0.0666  0.0175 -0.0042
    1W        W38350  13.865  21.489   8.866 -0.2991  0.2496  0.0439
    1W        W38351  17.939   4.113   0.862 -0.1157 -0.2224 -0.0743
    1W        W38352   1.690  10.143   0.544 -0.0071  0.1328  0.1062
    1W        W38353  27.975   8.380   1.839  0.1334 -0.0687  0.2310
    1W        W38354  27.772   0.975   0.544 -0.3087 -0.2391  0.1542
    1W        W38355   5.455   2.538   8.198  0.1546 -0.0064  0.0541
    1W        W38356   0.343  22.554   9.229  0.0126  0.0358  0.0719
    1W        W38357  14.983  16.476   0.424  0.2215  0.1345 -0.0288
    1W        W38358  16.344   0.622   8.183 -0.3103 -0.0508  0.0796
    1W        W38359  24.401   6.133   9.292  0.1039 -0.1886 -0.1152
    1W        W38360   3.761  29.882   2.183 -0.1609  0.0012  0.0979
    1W        W38361  20.704   9.309   7.460 -0.2060  0.2943  0.1265
    1W        W38362  19.260  19.573   6.858 -0.0948 -0.2117 -0.2764
    1W        W38363  20.065  20.983   7.534 -0.0086  0.1792  0.2184
    1W        W38364  14.288  29.093   0.113 -0.2729 -0.0913 -0.0809
    1W        W38365  21.408  12.192   0.247 -0.1305  0.0367  0.0677
    1W        W38366   5.100  27.911   0.711 -0.2527 -0.3138  0.0652
    1W        W38367  24.360  22.132   7.250 -0.0200 -0.0485  0.2913
    1W        W38368   1.734  13.398   7.061  0.2296  0.1331 -0.3539
    1W        W38369  24.249   4.127   6.553 -0.1785 -0.2321  0.1569
    1W        W38370   0.479  24.427   8.777 -0.1642 -0.2941 -0.0177
    1W        W38371   8.884  29.089   8.889 -0.0390 -0.1593  0.0925
    1W        W38372  13.573  23.831   6.793  0.0716  0.1107 -0.0100
    1W        W38373   8.182  14.577   0.963 -0.1122  0.0172 -0.0093
    1W        W38374  14.798  19.164   2.537 -0.3016 -0.0069  0.1650
    1W        W38375  13.483  12.542   8.377  0.0928  0.1471  0.0204
    1W        W38376  24.607   3.860   6.821  0.1842 -0.0550  0.3391
    1W        W38377  24.485  14.740   1.463 -0.2501 -0.4597  0.1669
    1W        W38378   9.323   4.772   9.379 -0.2699 -0.1582  0.1478
    1W        W38379  24.522   4.462   0.032  0.1565  0.1734 -0.2281
    1W        W38380   6.411   0.216   9.126 -0.0346 -0.2337  0.2590
    1W        W38381  13.474   5.315   8.885  0.3246 -0.2816 -0.1870
    1W        W38382  21.533  14.131   7.700 -0.0481  0.0761  0.0704
    1W        W38383  10.654   9.868   8.743  0.2749  0.1088  0.2069
    1W        W38384  28.458  22.559   8.429  0.0177 -0.3688 -0.1950
    1W        W38385  27.893  24.764   7.740 -0.0518 -0.2042  0.0794
    1W        W38386  12.510   5.359   0.143 -0.2042  0.0652 -0.0071
    1W        W38387  20.019  26.588   0.212 -0.2811  0.2294  0.3547
    1W        W38388   7.605   8.898   1.911 -0.2616 -0.2639 -0.0025
    1W        W38389  16.742  29.613   2.502 -0.2831  0.1124  0.0042
    1W        W38390   6.232   2.724   0.886  0.1413  0.1879  0.1263
    1W        W38391  23.552  10.113   9.123  0.4771 -0.0993 -0.2009
    1W        W38392  27.047  23.391   9.020 -0.3017  0.1711 -0.0463
    1W        W38393  12.022   7.616   1.271 -0.1073 -0.1154  0.0708
    1W        W38394   6.193   0.711   1.657  0.2343  0.0047 -0.0208
    1W        W38395  16.426  29.619   7.646 -0.3052  0.0064  0.0944
    1W        W38396  12.179  25.650   0.184  0.5419  0.4110 -0.3364
    1W        W38397  27.019   7.359   8.620 -0.0984  0.0192 -0.0182
    1W        W38398   7.204  22.427   6.371  0.1595 -0.0417  0.0453
    1W        W38399  17.162   7.749   9.043  0.0726  0.1092 -0.3577
    1W        W38400   7.653  21.313   6.809 -0.1639  0.1592 -0.2578
    1W        W38401  29.123  25.823   0.439  0.0201  0.0988 -0.2208
    1W        W38402  20.990  21.984   6.318 -0.3259  0.3189  0.0914
    1W        W38403   3.429  23.779   5.669 -0.2343  0.1725  0.2544
    1W        W38404   4.499  24.119   6.163  0.1613  0.2761 -0.1698
    1W        W38405  19.873  10.902   6.568  0.0047 -0.1017  0.1119
    1W        W38406  29.815   0.457   0.344  0.0708  0.3569  0.0632
    1W        W38407   8.905  13.522   0.525  0.0957  0.1483 -0.4038
    1W        W38408  17.339  19.340   1.000 -0.1274 -0.1436  0.0131
    1W        W38409   4.095  16.730   1.331 -0.0369 -0.1617 -0.2439
    1W        W38410   9.328  10.903   3.261  0.2343  0.1373  0.0578
    1W        W38411  29.392  13.706   5.881  0.3567 -0.1680  0.1925
    1W        W38412  19.577  15.354   6.944  0.0135 -0.0629  0.0433
    1W        W38413   8.435  22.835   6.783  0.1073 -0.3717 -0.1384
    1W        W38414   2.818   0.228   8.779  0.4917 -0.2510  0.0019
    1W        W38415  11.783  21.641   8.412 -0.1433 -0.0944  0.1633
    1W        W38416   6.263  13.973   0.152  0.0877 -0.0159 -0.0986
    1W        W38417  22.383   7.244   1.799  0.1748  0.2176  0.2364
    1W        W38418   7.538  18.394   9.088  0.2489 -0.0692 -0.2549
    1W        W38419  24.795  14.366   0.567 -0.1732 -0.0911 -0.3451
    1W        W38420  21.322   4.285   7.265 -0.2559  0.2258  0.0729
    1W        W38421  14.399   8.442   2.494  0.0224 -0.1633  0.0348
    1W        W38422  21.086   5.758   9.010  0.3181  0.1640 -0.0981
    1W        W38423  11.426  11.483   0.854  0.1595  0.1217  0.2089
    1W        W38424   9.793  23.645   8.967 -0.1530  0.1115  0.1316
    1W        W38425   1.152  10.205   7.184 -0.2363 -0.1397 -0.0692
    1W        W38426   6.102   8.125   7.451 -0.0420 -0.1515  0.0501
    1W        W38427  17.854  15.134   0.836  0.0300 -0.1239  0.0747
    1W        W38428   6.237   7.548   8.163  0.2493  0.0784 -0.0859
    1W        W38429  11.705   3.210   1.210 -0.2337  0.1223 -0.2584
    1W        W38430  15.873  23.195   7.435 -0.2624  0.0350 -0.0760
    1W        W38431  13.779   8.339   9.403 -0.1726 -0.1660 -0.2365
    1W        W38432   3.774   2.775   9.085  0.2167  0.0446 -0.1431
    1W        W38433   9.610   3.498   2.442  0.1457  0.2630  0.0675
    1W        W38434   2.239  17.283   7.927 -0.0177 -0.0928  0.0179
    1W        W38435  12.241   9.526   8.332  0.2718  0.0951  0.0595
    1W        W38436  24.137  25.911   7.813  0.0268  0.0864  0.5056
    1W        W38437  10.143  23.101   6.269 -0.0094  0.1395  0.2327
    1W        W38438  15.940  24.693   6.352  0.0440 -0.3637  0.0783
    1W        W38439  11.187  12.019   7.662 -0.0317 -0.1639  0.2204
    1W        W38440  28.639   4.847   2.057  0.1842 -0.0213  0.0883
    1W        W38441  19.303  26.699   6.813  0.0478 -0.0553  0.2341
    1W        W38442   2.711   3.790   9.247 -0.1297  0.1170  0.0448
    1W        W38443  22.095  24.394   8.837 -0.0170  0.2648 -0.0493
    1W        W38444  17.418   4.767   8.374  0.0770 -0.3370  0.1290
    1W        W38445   2.637  24.341   1.971 -0.0939  0.3050  0.1615
    1W        W38446   2.303  29.288   7.716 -0.0626 -0.0594 -0.0463
    1W        W38447   3.518  28.940   3.176 -0.0009 -0.4936 -0.0302
    1W        W38448  24.043  27.049   8.188 -0.0117  0.4192  0.0258
    1W        W38449  10.239  19.093   0.170  0.1165  0.2998 -0.0387
    1W        W38450  16.808   3.866   3.123  0.0725 -0.1295  0.1431
    1W        W38451   9.292  29.329   7.187 -0.0287 -0.3471  0.2003
    1W        W38452   7.353  14.491   2.640 -0.1113 -0.0723  0.4496
    1W        W38453   5.420  21.806   7.072 -0.0667 -0.0238 -0.1215
    1W        W38454  24.704  18.268   8.818  0.1032  0.0286 -0.1422
    1W        W38455   0.960   4.405   8.811 -0.0150  0.0345  0.0386
    1W        W38456  24.998  24.872   0.710  0.0129  0.2194 -0.0825
    1W        W38457  21.661   2.271   0.690 -0.2030  0.0320  0.2666
    1W        W38458  15.530  19.390   7.318 -0.2186  0.0191 -0.3069
    1W        W38459   4.717   0.039   1.449 -0.2646 -0.0563  0.0738
    1W        W38460  23.770   2.110   2.047  0.2489  0.0987  0.0000
    1W        W38461  26.424  20.728   8.725 -0.1905 -0.3347  0.1871
    1W        W38462   8.549  27.633   1.311  0.0041 -0.1310  0.2284
    1W        W38463  15.222  15.292   8.530  0.0854 -0.2678  0.0605
    1W        W38464  23.092  11.108   6.052 -0.0368  0.2082  0.2136
    1W        W38465  23.175  10.285   1.322  0.1389  0.0933 -0.0260
    1W        W38466   6.284  26.571   1.723  0.3375  0.0677 -0.1210
    1W        W38467  15.086  20.475   6.838  0.2669  0.1189 -0.1285
    1W        W38468  12.492   7.273   3.523 -0.0258  0.2479 -0.1400
    1W        W38469  26.126  11.379   1.231  0.1865 -0.1420 -0.0536
    1W        W38470   2.156  27.901   1.204 -0.2509 -0.1151  0.2518
    1W        W38471  26.747   9.738   6.314 -0.3066 -0.2036 -0.4063
    1W        W38472  25.103   3.957   6.678  0.0773 -0.0540 -0.0020
    1W        W38473   7.792  18.153   6.177  0.3274 -0.0889 -0.0077
    1W        W38474  29.169   9.007   0.404  0.2235  0.3451 -0.0918
    1W        W38475  26.239   9.307   1.759 -0.0880 -0.2283 -0.0223
    1W        W38476  17.924   0.857   8.253  0.2336  0.2015 -0.1087
    1W        W38477  16.463   9.247   2.321  0.0979  0.0391  0.0468
    1W        W38478  14.773   7.707   0.118 -0.1746  0.0669 -0.3964
    1W        W38479  10.680  10.339   8.680 -0.0554 -0.0861  0.1173
    1W        W38480   3.625   5.699   7.695 -0.1459  0.2193  0.0099
    1W        W38481   5.587   2.769   3.405  0.0331 -0.1294  0.1306
    1W        W38482   9.769  14.924   0.840  0.2212  0.0872 -0.2306
    1W        W38483   7.527  25.840   1.787 -0.0411  0.0526 -0.0675
    1W        W38484  13.040  23.677   8.603  0.1226 -0.1029 -0.0718
    1W        W38485   8.136  23.485   1.456  0.0295  0.0329  0.0331
    1W        W38486  28.853  21.894   6.921  0.3125 -0.0271  0.1763
    1W        W38487   0.261  21.900   2.249  0.0831  0.3953  0.2352
    1W        W38488  28.848   9.568   8.065 -0.3268 -0.1546  0.0247
    1W        W38489   5.922   3.486   2.529 -0.1155  0.1459 -0.3172
    1W        W38490  24.357  22.883   7.584 -0.0799 -0.0725  0.0048
    1W        W38491   6.216  18.478   6.789  0.0485 -0.3155  0.0014
    1W        W38492  20.809   9.810   8.812  0.1001 -0.0716  0.1728
    1W        W38493  29.470  29.935   2.565 -0.0374 -0.1830  0.3949
    1W        W38494   3.140   2.789   0.785 -0.0479  0.0751  0.1927
    1W        W38495   3.452   5.160   0.427 -0.0734  0.2238  0.0435
    1W        W38496  18.964  25.766   2.069 -0.0379  0.0411  0.0228
    1W        W38497  25.239  10.456   7.569  0.0171  0.1841  0.1524
    1W        W38498   9.159  28.389   8.331  0.2417  0.1378  0.2022
    1W        W38499  20.554   2.502   2.200 -0.0066  0.0877  0.2873
    1W        W38500   3.585   9.208   1.357  0.1227  0.1907 -0.0121
    1W        W38501  26.571  27.556   0.581 -0.1493  0.2978 -0.1810
    1W        W38502  15.037  29.453   7.635  0.0867  0.0635 -0.0099
    1W        W38503  14.162   0.545   9.067 -0.2300  0.2836  0.0835
    1W        W38504  28.550  11.552   6.448 -0.0992  0.0447 -0.1622
    1W        W38505  14.026   3.689   9.118  0.3421 -0.0921  0.0677
    1W        W38506   5.705  13.674   2.618 -0.0538 -0.2116 -0.2343
    1W        W38507   5.995  23.155   8.215  0.1223  0.1005 -0.1679
    1W        W38508  28.020  24.162   7.109  0.1575 -0.2873 -0.1352
    1W        W38509  24.539  29.697   6.788 -0.1961 -0.1319  0.2991
    1W        W38510   4.159  28.965   1.964 -0.0895  0.1192  0.4069
    1W        W38511   5.050  12.666   3.030 -0.1046  0.0730 -0.2285
    1W        W38512   2.007  12.677   1.129 -0.2966 -0.1819  0.0104
    1W        W38513  25.266  20.262   0.742  0.0113 -0.3054  0.1268
    1W        W38514  11.687   0.768   1.163 -0.2827  0.2883 -0.1531
    1W        W38515   4.601  20.217   7.943 -0.0451 -0.1685  0.4368
    1W        W38516   3.977  25.589   0.605  0.4155  0.0819 -0.0881
    1W        W38517  25.132  23.769   8.849  0.1177 -0.0298  0.2297
    1W        W38518  13.708  17.938   1.384  0.2107 -0.0162  0.2458
    1W        W38519   8.010  21.471   0.651  0.1206 -0.2219  0.0910
    1W        W38520   1.207  11.048   2.008  0.1765 -0.3074 -0.0169
    1W        W38521  19.472   3.992   8.600  0.1299  0.0594  0.1810
    1W        W38522   1.956   9.478   0.325  0.0651  0.2954 -0.3478
    1W        W38523  15.270  11.147   8.930 -0.3716  0.1258  0.0341
    1W        W38524  18.829  27.647   8.136 -0.0867  0.0045 -0.2555
    1W        W38525   1.902  29.865   2.285  0.0879  0.2399  0.1020
    1W        W38526  15.706   1.636   7.484  0.1581  0.0021  0.1359
    1W        W38527   3.942  29.437   2.132 -0.0641 -0.0560 -0.3057
    1W        W38528   9.462   1.987   7.307  0.0956  0.3347  0.2823
    1W        W38529   5.124  10.564   0.389 -0.2390  0.0127 -0.1279
    1W        W38530  11.196  20.595   8.925  0.0184  0.2820 -0.4844
    1W        W38531   2.341   0.979   8.787 -0.0090  0.1208 -0.1384
    1W        W38532  28.808  22.482   0.396 -0.1642  0.2055 -0.0321
    1W        W38533  14.371  25.400   7.429  0.1388  0.0136 -0.0103
    1W        W38534  23.197   7.224   7.770 -0.1144 -0.2537 -0.3401
    1W        W38535   8.518  18.900   8.205  0.1500  0.1013  0.1248
    1W        W38536  28.767  10.330   9.400  0.0496  0.0946  0.0174
    1W        W38537  19.048   4.787   0.756  0.0345 -0.2076 -0.0244
    1W        W38538  17.331  11.352   1.177 -0.1976 -0.1988  0.2084
    1W        W38539  28.480   4.378   1.469 -0.1383  0.2596 -0.2523
    1W        W38540  22.072  25.836   0.619  0.1469  0.2892 -0.0263
    1W        W38541  16.288  25.197   7.584  0.0711 -0.0807  0.1617
    1W        W38542  26.763  16.132   8.422 -0.0239 -0.4455 -0.1600
    1W        W38543  14.876  20.609   9.001 -0.1524  0.2543 -0.0235
    1W        W38544  19.061   7.726   1.026  0.2287  0.0977 -0.1796
    1W        W38545   4.313  16.496   6.856 -0.0559 -0.1766  0.3659
    1W        W38546  23.714   4.408   2.500  0.0121 -0.2000 -0.2211
    1W        W38547   2.062   7.366   2.389 -0.1037 -0.2045  0.2677
    1W        W38548  12.293   4.041   7.515  0.1301  0.0697  0.1037
    1W        W38549   3.203   9.155   8.494  0.0116 -0.1435 -0.2386
    1W        W38550  29.804  29.677   2.106 -0.0620 -0.1354  0.2012
    1W        W38551   1.134   2.427   7.381  0.0533  0.2012  0.0904
    1W        W38552   1.882   1.805   1.051  0.2511 -0.0060  0.2682
    1W        W38553   6.996  10.570   1.280  0.3201 -0.2474  0.0457
    1W        W38554  28.071   0.509   1.290  0.0049  0.0221  0.4588
    1W        W38555   6.240  30.065   2.196  0.0677 -0.2695  0.0755
    1W        W38556  13.686   4.834   7.619  0.1025 -0.2664 -0.2358
    1W        W38557   2.728   4.706   2.612 -0.0757 -0.2905 -0.0157
    1W        W38558  21.986  24.881   3.315  0.4166  0.0993 -0.2813
    1W        W38559  22.366  28.599   7.981  0.1352  0.0124  0.2741
    1W        W38560   5.466  15.852   1.445  0.0762  0.0020 -0.0167
    1W        W38561   3.111   5.890   2.268 -0.0444 -0.3116  0.1668
    1W        W38562  10.685  16.505   7.643  0.0540 -0.2293  0.0735
    1W        W38563  19.506  22.487   0.696  0.3644 -0.0250  0.2226
    1W        W38564   7.004  17.592   0.767  0.2845 -0.1194  0.0476
    1W        W38565   7.031  21.930   6.397  0.0391 -0.0348  0.2575
    1W        W38566  30.079  18.259   5.346  0.4089 -0.3046 -0.0064
    1W        W38567  20.385  15.600   8.576  0.2475  0.0231 -0.0141
    1W        W38568   3.856  15.885   5.863 -0.1066 -0.0213 -0.0987
    1W        W38569   4.512  12.583   1.186 -0.0943 -0.0667 -0.1263
    1W        W38570   2.267   8.344   9.146 -0.2335 -0.0329 -0.0453
    1W        W38571   4.951   0.093   1.987 -0.0843  0.1844 -0.1121
    1W        W38572   3.179  18.855   5.636  0.1419 -0.1911  0.0593
    1W        W38573  27.378  23.529   9.378 -0.0365 -0.1490  0.2496
    1W        W38574   2.845  24.035   1.066  0.2059  0.1430  0.0535
    1W        W38575   7.908   8.621   7.347 -0.0959  0.1858 -0.4183
    1W        W38576  28.915  18.787   2.147  0.0181 -0.2962  0.2739
    1W        W38577   9.124  12.411   7.842  0.6621  0.2542  0.1025
    1W        W38578  21.062  12.896   8.458 -0.2296  0.0735  0.4258
    1W        W38579  29.530  28.100   7.841  0.1557 -0.1944 -0.0657
    1W        W38580  24.231  12.264   6.254  0.2679  0.1149  0.3144
    1W        W38581  24.136  16.017   6.338 -0.1626  0.2176 -0.0832
    1W        W38582  18.788  10.755   0.271  0.1333  0.2598 -0.0102
    1W        W38583   5.228   6.305   0.492  0.1690 -0.2408 -0.1209
    1W        W38584  16.137   9.106   8.068  0.2513 -0.0340 -0.2681
    1W        W38585  29.530  20.320   1.249  0.0460 -0.0678  0.1204
    1W        W38586  25.014  10.173   1.912  0.1552 -0.0457  0.0436
    1W        W38587  19.957   5.739   3.961  0.0565  0.0450  0.1666
    1W        W38588  15.804  23.876   8.679  0.0530 -0.1175  0.3614
    1W        W38589  26.948  17.718   0.272  0.0921  0.2428  0.1031
    1W        W38590  26.201   2.720   5.817 -0.1092 -0.0185  0.2646
    1W        W38591  25.603  23.482   0.219  0.1260 -0.2816  0.0798
    1W        W38592  19.088  19.325   1.936  0.0187  0.4658 -0.0409
    1W        W38593  20.201  24.300   0.465  0.0981  0.1904 -0.2169
    1W        W38594   2.780  14.379   1.926  0.2880 -0.1266 -0.2741
    1W        W38595  22.536   3.637   1.837  0.2149  0.1613  0.2017
    1W        W38596  24.740   5.880   0.132 -0.1258  0.0651  0.0953
    1W        W38597  16.441  19.645   7.280  0.0864  0.0772  0.1709
    1W        W38598  16.025  10.291   2.389 -0.0440 -0.0212 -0.1977
    1W        W38599  19.299   1.971   0.765 -0.2118 -0.0293  0.2783
    1W        W38600  10.594  28.094   3.216 -0.4397  0.2191 -0.0456
    1W        W38601  25.132   7.819   1.719  0.0937  0.3772 -0.0551
    1W        W38602   1.316   3.908   0.387  0.2966 -0.1943 -0.2162
    1W        W38603  14.466   7.460   2.138  0.1344  0.1960 -0.0111
    1W        W38604   3.019  11.364   8.262  0.2314  0.2573 -0.0075
    1W        W38605   0.714   8.290   1.960 -0.1168 -0.0887 -0.0686
    1W        W38606   0.467  25.968   0.837 -0.0768 -0.0148  0.1401
    1W        W38607  20.085  19.273   1.151 -0.0762  0.1176 -0.2373
    1W        W38608  23.101  26.676   8.930 -0.0157 -0.0706 -0.0693
    1W        W38609   1.957   2.941   1.494 -0.0010  0.2961 -0.1840
    1W        W38610  21.711  21.374   7.900  0.1897 -0.1672 -0.1722
    1W        W38611   0.457  25.978   1.447 -0.0017 -0.1655  0.1868
    1W        W38612  10.460  24.521   6.527  0.1358  0.2211  0.0227
    1W        W38613   6.481  13.070   0.413 -0.0540 -0.0544 -0.1603
    1W        W38614  12.271  28.716   8.477 -0.2044  0.1487  0.1338
    1W        W38615  23.155  12.770   6.857  0.1557  0.3568 -0.1536
    1W        W38616  11.582   8.999   0.031  0.1575 -0.2962  0.1863
    1W        W38617   2.980  12.941   7.477  0.3587  0.0338 -0.1944
    1W        W38618  10.992  17.405   8.865 -0.0553  0.1421 -0.1533
    1W        W38619  21.424   9.373   8.552 -0.2289  0.2740 -0.0510
    1W        W38620   9.653   3.847   0.169 -0.1506  0.1379  0.1314
    1W        W38621   5.458   1.789   3.594  0.1349  0.0258  0.1903
    1W        W38622   5.941  25.070   6.554 -0.1338  0.2515 -0.2362
    1W        W38623   3.062   1.586   8.430  0.0288 -0.0658  0.4063
    1W        W38624  15.663  13.300   0.299  0.0302 -0.1215  0.0559
    1W        W38625  13.553  12.233   0.617 -0.0108 -0.1462 -0.2920
    1W        W38626  23.978  15.962   0.061 -0.1331  0.1791  0.1419
    1W        W38627  26.155  16.638   2.042 -0.4059 -0.0466  0.0861
    1W        W38628  25.282   5.905   7.941  0.0122  0.1022 -0.1428
    1W        W38629  30.013  27.553   6.693 -0.0383 -0.0790  0.0900
    1W        W38630  28.342  20.941   7.332  0.0122  0.0721 -0.3225
    1W        W38631  18.690  13.854   0.762 -0.0736 -0.2970 -0.4473
    1W        W38632   3.247  20.061   5.118  0.0164 -0.0351  0.0984
    1W        W38633  22.589   2.807   6.743 -0.0083  0.1587 -0.2429
    1W        W38634  13.087  17.670   7.802 -0.1925  0.0368  0.1002
    1W        W38635  19.369   3.227   0.286  0.0570 -0.2836 -0.0100
    1W        W38636  28.734   0.869   7.099  0.0673  0.0570 -0.1300
    1W        W38637   7.801  12.689   0.053 -0.2206  0.0512 -0.0060
    1W        W38638   8.788   6.697   6.968 -0.3432 -0.3930  0.1014
    1W        W38639   2.597  12.990   1.801  0.2307  0.0718  0.1318
    1W        W38640   1.702  15.788   5.794 -0.1901 -0.4912  0.0329
    1W        W38641  29.793   7.765   0.658 -0.0542  0.2069  0.1820
    1W        W38642  19.825   0.999   8.060 -0.2422 -0.2336 -0.0240
    1W        W38643  13.091   3.213   2.818  0.1298  0.0539 -0.0803
    1W        W38644   3.155  20.909   0.690  0.2710  0.0919  0.1660
    1W        W38645  12.913  24.681   6.659 -0.2949 -0.1711  0.0271
    1W        W38646  24.264  24.262   5.822 -0.0593  0.0681  0.0005
    1W        W38647   4.608  28.822   0.936 -0.0789 -0.0282  0.1350
    1W        W38648   4.698   1.995   7.776 -0.3036 -0.0369  0.2785
    1W        W38649  24.659  28.371   7.091  0.1899 -0.1834  0.0831
    1W        W38650  17.585  26.960   9.309  0.1261 -0.1874 -0.2410
    1W        W38651  19.074  15.732   7.047 -0.0409  0.0536 -0.1091
    1W        W38652   1.659  28.409   1.529 -0.2000 -0.3831 -0.1492
    1W        W38653  30.143   8.491   7.939  0.0830 -0.0917 -0.0928
    1W        W38654   2.985  12.318   8.593 -0.0456 -0.1310 -0.0273
    1W        W38655  16.893  16.306   8.106 -0.1763  0.1259 -0.2408
    1W        W38656  17.240  17.278   7.488  0.1068 -0.0494  0.1265
    1W        W38657  20.857  10.535   8.890  0.1543  0.1324 -0.0367
    1W        W38658   7.905  21.255   6.402  0.0136 -0.0716 -0.2712
    1W        W38659   0.148   5.627   7.280 -0.0280  0.3391 -0.1720
    1W        W38660   8.491   9.885   7.494 -0.0450 -0.1288 -0.0193
    1W        W38661  28.564  17.857   7.859  0.3133  0.0220 -0.2744
    1W        W38662   5.510   3.743   2.610  0.3620 -0.1263  0.0173
    1W        W38663  23.490  16.791   0.528  0.1203  0.2536  0.0566
    1W        W38664  28.802  25.330   8.643  0.0469  0.0823 -0.1471
    1W        W38665  13.087   0.885   0.068  0.0788 -0.0301 -0.2820
    1W        W38666  25.647  22.469   8.518  0.1614  0.0846 -0.1170
    1W        W38667  12.674  28.332   3.573  0.0295  0.0902 -0.2578
    1W        W38668  21.824   5.859   7.050 -0.1412 -0.1791  0.1138
    1W        W38669  28.683  12.596   9.310 -0.0246 -0.0073 -0.2346
    1W        W38670  11.161  17.408   7.487  0.1225  0.0178 -0.0330
    1W        W38671  21.904   0.041   1.131 -0.0727  0.1345 -0.0169
    1W        W38672  23.789   1.661   2.286  0.0483 -0.1755  0.0674
    1W        W38673   6.538  13.686   7.332 -0.1326  0.0640 -0.0733
    1W        W38674  19.165  21.982   7.354 -0.5248  0.2424  0.0367
    1W        W38675  23.568  20.818   8.960  0.0361 -0.1416 -0.1100
    1W        W38676   6.082  19.473   5.390 -0.1060  0.0165  0.2850
    1W        W38677  22.769   2.373   9.004 -0.0642 -0.0613  0.0003
    1W        W38678   8.690  21.425   6.991  0.2155 -0.2392  0.1654
    1W        W38679  25.584   6.349   0.387 -0.0454  0.2216  0.0952
    1W        W38680  17.537  16.695   0.819  0.0552  0.0787  0.1300
    1W        W38681   9.653  22.571   5.745  0.3270  0.0383  0.0056
    1W        W38682   7.427  12.353   8.236  0.2041 -0.1240  0.0160
    1W        W38683   6.071   8.710   3.299  0.1470 -0.1663 -0.0059
    1W        W38684   1.500  12.700   6.652 -0.1986 -0.1377  0.0064
    1W        W38685  16.805   1.947   0.645  0.0745  0.0084 -0.2175
    1W        W38686  27.283   6.872   6.235  0.0910  0.1372 -0.0705
    1W        W38687   0.223  26.530   7.011 -0.2710 -0.1792  0.1447
    1W        W38688   6.025  25.242   8.072 -0.0869  0.3369 -0.0609
    1W        W38689  29.778   9.857   5.616 -0.0761 -0.1569 -0.2238
    1W        W38690   1.457  19.981   6.161  0.0178 -0.0994 -0.1929
    1W        W38691  13.044   7.739   8.830 -0.1200 -0.2945 -0.1549
    1W        W38692   1.422   3.242   7.221 -0.1002  0.0772  0.2362
    1W        W38693   5.686   0.389   3.048 -0.1653  0.1123  0.1791
    1W        W38694  25.367  24.763   1.776 -0.1726 -0.0442 -0.0660
    1W        W38695   6.662  17.179   8.738  0.0441 -0.0512  0.2415
    1W        W38696  23.390  24.747   6.923 -0.0283  0.3016  0.2888
    1W        W38697   0.647  11.185   0.269 -0.0463 -0.2166 -0.2263
    1W        W38698  13.711  28.360   2.872 -0.2226  0.0123 -0.0033
    1W        W38699   0.672  15.022   8.671  0.1038 -0.1150  0.2813
    1W        W38700  21.946  12.165   8.811 -0.0107 -0.1254 -0.3342
    1W        W38701  23.529   2.802   7.648 -0.0281 -0.0191 -0.0762
    1W        W38702  28.306  13.782   2.182  0.1307 -0.2920  0.2611
    1W        W38703   2.705  28.666   8.397  0.1225 -0.1479 -0.2567
    1W        W38704  19.528   9.682   1.777  0.1492 -0.1765  0.1143
    1W        W38705  26.112  24.321   7.087  0.1297  0.2938  0.1779
    1W        W38706  24.379  13.202   7.287  0.3658  0.0073  0.3878
    1W        W38707  20.399   4.804   2.814 -0.0135 -0.2537  0.1515
    1W        W38708  28.955  17.876   1.312  0.3913  0.3561 -0.0551
    1W        W38709  23.555   2.943   2.644 -0.0414  0.0685  0.2967
    1W        W38710   7.838   7.335   9.132 -0.2740 -0.1374  0.3224
    1W        W38711  28.226  18.373   6.166  0.0119 -0.1770  0.0354
    1W        W38712   5.448   3.983   7.689 -0.0928 -0.2154 -0.0495
    1W        W38713  20.875   0.630   7.669 -0.0570  0.0146 -0.1183
    1W        W38714  24.636   5.563   1.083  0.0532 -0.1423  0.0387
    1W        W38715   1.452  29.378   3.494  0.0262 -0.3055 -0.0503
    1W        W38716   6.408   2.616   2.981  0.2460 -0.2375 -0.0027
    1W        W38717  18.034   8.033   3.473 -0.2255 -0.2118  0.2051
    1W        W38718  27.466  17.726   0.086  0.0141 -0.3857 -0.1150
    1W        W38719   8.726  20.180   7.244  0.0383 -0.0530 -0.4496
    1W        W38720  25.491  24.939   6.821 -0.0815 -0.1947  0.1171
    1W        W38721   7.609  11.534   2.472  0.1518 -0.2287 -0.0029
    1W        W38722   7.096  24.478   1.461 -0.2254  0.2309  0.3161
    1W        W38723  30.113   4.972   1.803 -0.0961 -0.0570  0.1036
    1W        W38724  16.400   3.144   3.344 -0.4303 -0.3275  0.0196
    1W        W38725  27.731  22.368   7.783 -0.0694 -0.0876 -0.0775
    1W        W38726   1.933  22.483   1.333 -0.0687 -0.1000 -0.0499
    1W        W38727  18.134  27.236   1.537  0.2700 -0.1305 -0.1493
    1W        W38728  13.731  23.198   0.162 -0.1987  0.1178 -0.1474
    1W        W38729   1.424   0.915   2.112  0.0573  0.0891 -0.2703
    1W        W38730  21.766   8.069   3.012 -0.1225  0.3322 -0.1544
    1W        W38731  27.774   5.211   2.603  0.0227 -0.1934  0.0002
    1W        W38732  21.914  18.522   8.453  0.0751 -0.0470 -0.2926
    1W        W38733   8.807  12.944   1.253  0.1127  0.0720 -0.0340
    1W        W38734   3.730  18.659   6.510 -0.0759 -0.1725 -0.3978
    1W        W38735  29.624  23.216   1.677 -0.1865 -0.0575  0.0160
    1W        W38736  19.471   3.961   8.001  0.1854  0.0531 -0.0605
    1W        W38737  11.108  21.362   2.144 -0.0737 -0.2309  0.0180
    1W        W38738   1.090  22.593   1.449 -0.0889  0.1267 -0.1261
    1W        W38739  21.374   1.299   7.387 -0.2670 -0.3004 -0.0043
    1W        W38740   8.522  13.201   7.953  0.2152 -0.0518  0.0497
    1W        W38741   7.642  28.629   9.023 -0.0368 -0.0966  0.1360
    1W        W38742   4.573  10.989   2.029  0.0620  0.0967  0.0482
    1W        W38743   2.738  16.413   1.189  0.1751 -0.2078 -0.0545
    1W        W38744  28.350  29.909   9.266  0.1566  0.0949  0.1264
    1W        W38745   6.166  13.022   2.584  0.0908 -0.1325 -0.3571
    1W        W38746  15.150  24.302   1.444 -0.1415 -0.0318 -0.2358
    1W        W38747  12.527  17.611   6.960 -0.1233  0.0404 -0.1752
    1W        W38748   0.675  15.766   0.881  0.1960  0.1943  0.2132
    1W        W38749   8.759  13.864   1.262 -0.1601  0.2339 -0.0194
    1W        W38750  16.251  20.828   0.989  0.1280 -0.1445  0.1246
    1W        W38751  16.990  29.768   8.571  0.0199  0.2893  0.0963
    1W        W38752   3.767  20.179   0.791  0.0002  0.1211  0.1504
    1W        W38753  22.223  26.320   8.105 -0.3726 -0.1277  0.1820
    1W        W38754  17.703  20.865   1.064  0.1195  0.0683 -0.0037
    1W        W38755  28.924  22.882   0.683 -0.2552  0.2360  0.0357
    1W        W38756  26.207   2.494   2.041  0.1624 -0.4017  0.1752
    1W        W38757  14.878  10.884   8.700 -0.0727  0.0485 -0.1449
    1W        W38758  12.662   3.413   0.595 -0.1806  0.1013 -0.1703
    1W        W38759  10.527   5.071   2.047 -0.1546 -0.3904  0.4631
    1W        W38760   5.598   3.638   0.826 -0.1046 -0.1779  0.1541
    1W        W38761  21.606  20.349   1.533 -0.0241  0.2313 -0.1232
    1W        W38762   7.251  10.279   8.412 -0.1328 -0.1459  0.1228
    1W        W38763  16.843  24.065   7.785  0.0160  0.1624 -0.1131
    1W        W38764  14.924  28.195   8.669  0.2632  0.0552 -0.2336
    1W        W38765  25.284  16.314   1.584 -0.2068  0.2800 -0.0424
    1W        W38766   1.441  18.006   6.931 -0.2794  0.0569  0.2258
    1W        W38767  20.090  11.802   1.823  0.3969 -0.0758  0.0196
    1W        W38768  20.658   9.117   7.042 -0.3076 -0.2318 -0.0046
    1W        W38769   3.917  29.834   8.188 -0.4543 -0.1566 -0.2819
    1W        W38770  11.017  23.049   6.547 -0.1566 -0.0596  0.0719
    1W        W38771  22.003   5.306   7.850 -0.1079 -0.1057  0.2693
    1W        W38772  14.580  26.105   1.661  0.2287  0.0160 -0.0444
    1W        W38773  29.607  15.568   0.115 -0.0781  0.0401 -0.0994
    1W        W38774  17.386  20.272   7.086 -0.2035  0.0615  0.0334
    1W        W38775   6.412  24.737   8.754 -0.0408  0.2359  0.0168
    1W        W38776  12.883   4.976   1.354 -0.1159  0.3261 -0.2223
    1W        W38777   1.510   2.483   8.613  0.1132 -0.0708 -0.0190
    1W        W38778   2.536  29.021   3.052  0.1806  0.4371 -0.1271
    1W        W38779  21.088   6.799   9.347  0.1999  0.0166  0.1943
    1W        W38780   4.694  13.561   0.334  0.3585 -0.2540 -0.2252
    1W        W38781   0.895   2.078   0.017  0.1746 -0.1878 -0.1199
    1W        W38782   2.291  24.451   7.319  0.1170 -0.4116  0.3082
    1W        W38783  27.770  25.601   7.650 -0.0922  0.2484 -0.4197
    1W        W38784  24.942  10.323   0.679  0.1539  0.2275  0.0061
    1W        W38785  14.163  22.540   8.120 -0.1167  0.0610 -0.1103
    1W        W38786  25.591  10.473   5.445 -0.1179 -0.0764  0.1602
    1W        W38787  16.809   8.451   8.226 -0.0243 -0.0151 -0.1789
    1W        W38788  15.186   5.057   8.505 -0.2568 -0.2015  0.0639
    1W        W38789   0.274  16.195   7.338  0.0582  0.1465 -0.1272
    1W        W38790   7.809  10.175   9.287  0.0360 -0.1132 -0.1541
    1W        W38791  20.854   0.781   0.807  0.0788  0.4370 -0.0107
    1W        W38792  18.617   3.347   8.995  0.1531  0.1766  0.0680
    1W        W38793   2.770  22.344   7.509 -0.0490 -0.2885  0.2281
    1W        W38794   0.705   4.923   2.721 -0.0436  0.2520 -0.2804
    1W        W38795  25.324   0.168   8.722 -0.1680 -0.0031 -0.1422
    1W        W38796  27.995   6.333   6.635  0.4817  0.1525 -0.3985
    1W        W38797  22.716   7.999   6.969 -0.1784  0.0737 -0.3623
    1W        W38798   6.879  21.720   7.434  0.0620 -0.1256  0.1552
    1W        W38799  18.104  29.766   9.074 -0.2836 -0.1773 -0.2035
    1W        W38800  25.378  17.040   8.155  0.0499 -0.2920 -0.1002
    1W        W38801   7.232  13.372   0.155  0.0787 -0.0906 -0.0108
    1W        W38802  15.239  26.250   8.697  0.2322 -0.0641 -0.2584
    1W        W38803  29.640   6.203   7.568  0.0625  0.2591 -0.2729
    1W        W38804  21.170  27.729   1.199 -0.0170  0.0463  0.2483
    1W        W38805   7.043  21.677   5.999 -0.0996  0.0578 -0.2270
    1W        W38806  13.327  25.962   8.138  0.0201  0.0477  0.0246
    1W        W38807   0.937   3.528   1.165 -0.3192  0.3508 -0.1114
    1W        W38808   7.743   2.829   7.656  0.1896  0.1426 -0.2348
    1W        W38809  13.251  27.520   3.423  0.0693  0.2288  0.4055
    1W        W38810   1.218  24.100   1.357  0.2749  0.2561 -0.0073
    1W        W38811  28.270   8.799   1.856 -0.1121 -0.1076  0.1301
    1W        W38812   3.147   3.742   7.381  0.0574 -0.4224 -0.1065
    1W        W38813  18.867  22.549   8.188 -0.0403  0.2013  0.1304
    1W        W38814  10.609  27.003   1.716  0.0523  0.2679  0.1190
    1W        W38815  11.489  17.736   1.096 -0.0770  0.0484  0.3354
    1W        W38816  18.295   5.084   8.646  0.2212 -0.1851  0.2117
    1W        W38817  22.737  23.572   2.182 -0.0198 -0.0769 -0.1521
    1W        W38818   1.467   9.015   1.016 -0.1327 -0.3265  0.1723
    1W        W38819  26.934   0.907   7.226 -0.0930  0.0520  0.1291
    1W        W38820   0.463  13.805   1.776 -0.0213 -0.0180 -0.0670
    1W        W38821  14.614   2.054   0.471  0.0993 -0.1451  0.1532
    1W        W38822   6.694   2.402   1.058 -0.1129  0.1333  0.1643
    1W        W38823  13.321  22.411   0.304  0.2645 -0.0258  0.0822
    1W        W38824  15.550   9.182   2.907  0.0170 -0.2960 -0.0867
    1W        W38825   2.302  13.617   6.120 -0.2743 -0.3210 -0.0613
    1W        W38826  12.809   3.438   2.470  0.4108  0.2488 -0.1317
    1W        W38827  21.230  22.237   1.191  0.1518 -0.2304 -0.1652
    1W        W38828  12.085   7.070   0.150  0.1202  0.1722 -0.2059
    1W        W38829  24.139  25.998   1.741  0.1681 -0.2864 -0.1393
    1W        W38830  13.613  26.521   0.947 -0.1203  0.0033  0.1042
    1W        W38831  19.585  26.593   7.270 -0.1510 -0.3127 -0.1002
    1W        W38832  18.688   5.090   7.792  0.1652  0.1859 -0.1743
    1W        W38833  14.651  12.986   1.158 -0.0602  0.1888 -0.2341
    1W        W38834  24.082  26.760   1.440 -0.0091  0.0986 -0.2324
    1W        W38835  26.960   5.619   1.780 -0.1374  0.0850 -0.2169
    1W        W38836  26.403   8.561   7.348  0.0524 -0.1239 -0.1089
    1W        W38837   8.832   7.023   2.031  0.1142 -0.2645  0.2164
    1W        W38838  10.210  21.280   0.152 -0.2514  0.3613 -0.0173
    1W        W38839   1.557  21.135   1.755  0.1441  0.0525 -0.1075
    1W        W38840   8.935  21.580   0.561  0.0299 -0.0150  0.1548
    1W        W38841  22.362  15.502   0.978 -0.1994 -0.2378  0.1238
    1W        W38842   5.710  10.608   9.197 -0.1609 -0.1294 -0.0454
    1W        W38843   0.225  20.024   6.406 -0.1340  0.1245  0.2742
    1W        W38844   3.801  21.933   1.024  0.0578  0.1110  0.0919
    1W        W38845   2.257  21.993   9.356  0.3265 -0.0705 -0.1936
    1W        W38846  10.951  28.900   9.085 -0.1004  0.0465  0.1062
    1W        W38847  15.792  17.762   8.864 -0.0746 -0.3287  0.1265
    1W        W38848  24.918  29.963   8.993 -0.0758 -0.0221 -0.2458
    1W        W38849   6.884  29.815   0.182 -0.3774  0.2937  0.0750
    1W        W38850  17.338   4.179   0.938  0.0457  0.1222  0.0640
    1W        W38851  29.740   5.879   8.005 -0.0095 -0.2270 -0.3989
    1W        W38852  12.976  24.736   2.679  0.2243 -0.0070 -0.0906
    1W        W38853   8.441   6.786   2.853  0.0219  0.2123  0.1134
    1W        W38854  19.322   4.491   1.453  0.1210 -0.3088 -0.0620
    1W        W38855  27.584  21.288   2.712  0.0363  0.2955 -0.4835
    1W        W38856   9.407  27.661   6.323 -0.0167 -0.0563 -0.2461
    1W        W38857  12.434   0.502   0.020 -0.0767  0.0151 -0.1911
    1W        W38858   1.479  19.765   5.412 -0.0874  0.1971  0.2078
    1W        W38859   8.836  23.178   9.361  0.2908 -0.3121 -0.0661
    1W        W38860  15.893   7.761   1.573  0.1031 -0.0527 -0.1687
    1W        W38861  15.103   1.520   1.792 -0.0954 -0.1550  0.0343
    1W        W38862  15.597   7.953   8.625  0.0499 -0.1470 -0.0695
    1W        W38863   6.132  27.934   8.000 -0.3473 -0.0048 -0.1663
    1W        W38864   7.496  20.409   1.072  0.1936  0.1253 -0.0064
    1W        W38865   4.555   1.298   1.137  0.3061 -0.1617  0.0874
    1W        W38866   8.626   7.432   1.905  0.1961 -0.3107  0.2760
    1W        W38867  18.108  15.632   7.385 -0.3409  0.0159  0.2127
    1W        W38868   8.296  24.059   1.132 -0.1509 -0.2138  0.1251
    1W        W38869  18.536   6.586   0.257  0.0505  0.0660  0.1578
    1W        W38870   4.652  27.967   2.512 -0.1259  0.0039  0.0569
    1W        W38871  20.077   9.288   7.901 -0.1789 -0.1205 -0.1429
    1W        W38872  20.248   7.169   7.802  0.0004 -0.0534 -0.0725
    1W        W38873   6.009  29.315   0.545  0.0662 -0.0356  0.2116
    1W        W38874  12.983  28.319   8.297  0.1243  0.0423  0.0530
    1W        W38875  23.215   1.955   7.339 -0.0630  0.2635 -0.0154
    1W        W38876   0.900  17.289   8.443 -0.0853  0.2341  0.1405
    1W        W38877  11.564   1.505   3.507  0.0551 -0.0642  0.1973
    1W        W38878   1.965  19.714   6.756 -0.0879  0.2439  0.1218
    1W        W38879   4.458   8.455   2.120  0.1231  0.1912 -0.1984
    1W        W38880   9.954  28.893   3.055 -0.0843  0.2152  0.3400
    1W        W38881   7.247  27.392   0.399  0.1523 -0.0783 -0.2195
    1W        W38882   8.539  17.378   1.900 -0.0278  0.0805 -0.1045
    1W        W38883  20.971  16.870   2.173 -0.0847  0.0870  0.0624
    1W        W38884  29.932  14.525   1.030 -0.0909 -0.0425 -0.2736
    1W        W38885  11.497  25.869   7.681 -0.3099  0.3917 -0.0320
    1W        W38886  12.672  11.969   8.802 -0.0101 -0.1029 -0.4164
    1W        W38887  27.205  15.396   7.576  0.0771 -0.2062  0.3084
    1W        W38888  23.767  10.557   9.183  0.1459 -0.0683  0.1300
    1W        W38889   3.949  18.955   7.233  0.2264  0.2632  0.1659
    1W        W38890  29.987  22.054   9.320  0.0283  0.0248  0.2769
    1W        W38891  23.679  22.642   6.936  0.1966 -0.0153 -0.1663
    1W        W38892   2.408  22.601   1.154  0.0884  0.1641  0.0895
    1W        W38893  21.639  27.131   6.916  0.1381  0.0234  0.1840
    1W        W38894  29.994  24.429   0.854 -0.1287  0.0042  0.2608
    1W        W38895  21.657  25.038   0.075 -0.1081 -0.0266 -0.0864
    1W        W38896   5.563   7.041   2.410  0.1511  0.0141 -0.2619
    1W        W38897   3.210   3.593   7.853  0.1081 -0.0580  0.1212
    1W        W38898  18.715  17.057   0.669  0.1287 -0.1832  0.4040
    1W        W38899  21.550  17.033   9.347  0.1386  0.0961  0.1488
    1W        W38900   2.899  27.611   2.444 -0.0471 -0.1907 -0.1498
    1W        W38901  14.757  11.894   8.366  0.1288  0.1671  0.0002
    1W        W38902  20.878  14.816   7.555  0.2040 -0.0822 -0.2310
    1W        W38903  21.653  29.300   0.321 -0.2848  0.1577 -0.2446
    1W        W38904  17.499   0.533   8.295  0.1447  0.0710  0.1089
    1W        W38905  21.056   2.921   9.077 -0.0138 -0.1919  0.2165
    1W        W38906   2.544  16.492   5.949 -0.4372  0.2713 -0.0768
    1W        W38907  14.434  15.578   1.625 -0.2181  0.0894  0.2731
    1W        W38908   8.684  27.619   0.722  0.0314 -0.0882  0.2451
    1W        W38909  17.882  21.237   7.953 -0.0215  0.2790 -0.0312
    1W        W38910   6.953   7.230   7.448  0.0112 -0.0567 -0.2734
    1W        W38911  29.784  16.228   8.126  0.0332 -0.1081  0.0132
    1W        W38912   3.119  13.167   2.527 -0.2023 -0.1329  0.0627
    1W        W38913  27.340  12.820   8.847  0.3121 -0.1571 -0.0575
    1W        W38914  18.254   2.798   2.956  0.2620  0.2419 -0.1601
    1W        W38915  17.958  29.987   8.639 -0.0960 -0.0738  0.0643
    1W        W38916  28.946   0.046   1.880 -0.1532 -0.0405 -0.2169
    1W        W38917   5.847  21.136   0.251  0.0818 -0.0284  0.3139
    1W        W38918   3.954  26.121   8.083 -0.1447 -0.0323  0.0773
    1W        W38919  22.061   0.391   0.577  0.0722 -0.1398 -0.0632
    1W        W38920  30.085  23.829   7.450  0.0303  0.0220 -0.1199
    1W        W38921  19.578   6.018   0.941 -0.1234 -0.0784 -0.3297
    1W        W38922  24.462  20.566   1.513 -0.2452 -0.0613  0.1523
    1W        W38923  23.869  14.482   7.862 -0.0004  0.1646  0.1426
    1W        W38924  21.425  29.084   9.308 -0.1224  0.1961 -0.1407
    1W        W38925   6.111   8.776   7.512  0.0805 -0.1901  0.2421
    1W        W38926  17.528   0.317   3.201  0.2463 -0.0996 -0.1118
    1W        W38927   2.682  24.171   9.106  0.0466 -0.1232 -0.2008
    1W        W38928  25.669  19.684   6.483  0.0112 -0.1954 -0.0352
    1W        W38929   7.096  25.957   7.747  0.1549 -0.0414 -0.0685
    1W        W38930  15.886   7.574   9.304  0.2515 -0.0556  0.1895
    1W        W38931  12.733  19.497   8.591  0.0217  0.3503  0.1623
    1W        W38932  19.780  10.947   1.235 -0.0817 -0.2018  0.0682
    1W        W38933   8.728  14.664   9.120 -0.0204  0.0085  0.1756
    1W        W38934   7.401   6.386   2.624  0.0568  0.2109 -0.2256
    1W        W38935  21.845  25.307   1.776  0.0003  0.2091  0.0073
    1W        W38936  18.359  24.921   2.003 -0.1669 -0.0243  0.1519
    1W        W38937  11.967   0.406   1.044  0.0120  0.1829  0.0853
    1W        W38938   1.442   9.904   2.458  0.1876  0.2225  0.0841
    1W        W38939  29.884  29.875   8.094  0.0293 -0.2035 -0.1662
    1W        W38940   5.624  26.104   8.289  0.0194 -0.3614 -0.2088
    1W        W38941   6.892  24.829   8.008 -0.0326  0.0526  0.0495
    1W        W38942   3.699   5.177   1.296  0.1443 -0.3484 -0.2336
    1W        W38943   1.208   4.041   1.226  0.0731  0.1503 -0.0812
    1W        W38944   6.141  23.758   5.610 -0.2674  0.1464  0.1760
    1W        W38945  15.555  17.280   8.002 -0.0094 -0.1506 -0.3015
    1W        W38946  22.852   3.924   2.089 -0.1000  0.0333  0.1037
    1W        W38947  11.919   3.003   3.247 -0.1723  0.2681  0.0484
    1W        W38948   3.939  25.592   8.264 -0.0567 -0.1427 -0.0816
    1W        W38949   3.110   2.458   0.235 -0.2663 -0.0197 -0.0076
    1W        W38950  15.929  14.312   8.233  0.2395  0.3023  0.2935
    1W        W38951  23.451   6.251   7.543  0.0020  0.2662  0.0084
    1W        W38952  27.077  19.276   8.534  0.0861  0.2953 -0.1772
    1W        W38953  18.609  19.127   7.374 -0.3616  0.1334  0.0751
    1W        W38954   4.730  13.042   0.446  0.0982  0.1900  0.2500
    1W        W38955   4.897  24.199   1.497 -0.0068 -0.0527  0.1648
    1W        W38956  27.324   7.735   8.342  0.1386  0.2583 -0.0235
    1W        W38957  26.607  11.753   0.696  0.0484 -0.1269  0.0277
    1W        W38958  13.520  23.386   1.947 -0.0003  0.1477 -0.3863
    1W        W38959   9.924  16.454   7.530  0.1715 -0.1526  0.1020
    1W        W38960  18.996  28.318   7.031  0.0641  0.1656  0.0438
    1W        W38961  25.870   2.066   8.984 -0.0381 -0.1449  0.4268
    1W        W38962  26.563  12.600   0.590  0.0412  0.0648 -0.0009
    1W        W38963  15.274  15.604   9.016 -0.0823  0.0676  0.1484
    1W        W38964  23.930   3.612   1.761  0.0403  0.0886 -0.4483
    1W        W38965  21.687  20.121   0.010 -0.2430 -0.1550 -0.1280
    1W        W38966   7.713  28.975   0.634  0.2909  0.2177 -0.1746
    1W        W38967   0.478  19.906   8.108  0.2352  0.0580  0.1641
    1W        W38968  25.943  16.032   6.050  0.1799  0.2183  0.1721
    1W        W38969   1.739  25.760   8.536 -0.2923  0.1505 -0.3688
    1W        W38970  26.556  12.646   6.073  0.2550  0.0952  0.1833
    1W        W38971   5.379  26.304   0.866 -0.0193 -0.0799  0.0790
    1W        W38972  29.483  12.793   1.100  0.0399 -0.1164 -0.0957
    1W        W38973  25.854  25.600   1.543  0.0817 -0.2248 -0.0691
    1W        W38974   9.638  27.722   9.004 -0.2378  0.0642 -0.1686
    1W        W38975  13.419  11.928   1.626 -0.3044  0.3485 -0.1309
    1W        W38976  18.848  11.387   2.070  0.1451 -0.1167 -0.0302
    1W        W38977  22.922  10.560   0.492 -0.1377 -0.0480 -0.1855
    1W        W38978   3.507  18.251   6.206  0.1607  0.2062 -0.1105
    1W        W38979   0.624  16.942   8.134  0.0910  0.0651  0.0649
    1W        W38980  27.142   8.712   0.320 -0.0233  0.0421  0.1943
    1W        W38981  17.987   2.903   0.113  0.1537 -0.2314 -0.2455
    1W        W38982   9.664   8.926   9.163  0.1339 -0.0457  0.0729
    1W        W38983  26.555  15.894   7.994 -0.0386  0.2185 -0.2205
    1W        W38984  25.717  11.873   8.170  0.4140 -0.0369  0.1665
    1W        W38985  18.963  26.432   1.211 -0.0450 -0.0185  0.2075
    1W        W38986  28.942   7.109   0.989  0.1050 -0.0267 -0.0406
    1W        W38987  24.133  14.955   1.046 -0.1587 -0.1357 -0.0623
    1W        W38988  17.450   6.402   1.981  0.6421 -0.2570  0.0364
    1W        W38989   4.590  14.263   7.922 -0.0874  0.1339 -0.2094
    1W        W38990   7.761  24.229   7.536  0.1727  0.0998  0.0590
    1W        W38991  14.395  18.895   7.150  0.3376 -0.1443  0.2467
    1W        W38992  10.924  24.079   0.251  0.2659 -0.4697 -0.0543
    1W        W38993  15.489  11.539   8.720  0.0103 -0.2779  0.1068
    1W        W38994   2.389   5.256   3.196 -0.1350  0.0475  0.2117
    1W        W38995  10.667  25.678   9.209  0.3214  0.1456  0.2104
    1W        W38996   5.524   9.442   7.043 -0.0674  0.2070  0.0286
    1W        W38997   3.220  23.984   8.616  0.2082  0.4467  0.2182
    1W        W38998  18.227  26.434   8.079  0.0485 -0.0372 -0.2264
    1W        W38999  18.517  25.082   9.287  0.2649 -0.2508  0.0961
    1W        W39000   6.663  11.496   0.041 -0.0616  0.2290 -0.0171
    1W        W39001  24.376   6.502   1.580 -0.1058  0.0065 -0.1001
    1W        W39002   4.005  14.198   0.536 -0.0806 -0.1077  0.4438
    1W        W39003   8.639  18.669   1.150 -0.0337 -0.2002 -0.1875
    1W        W39004   3.529   2.718   6.960 -0.3372  0.1764  0.0686
    1W        W39005  19.622  13.356   0.328 -0.1024 -0.3077 -0.1835
    1W        W39006  13.058   4.273   3.138  0.1436  0.2842  0.1736
    1W        W39007  15.506  20.704   1.377  0.1802  0.1042 -0.2374
    1W        W39008  30.118   9.648   6.340  0.0948 -0.1521  0.2336
    1W        W39009   0.693  27.952   3.173 -0.0005  0.3961  0.2257
    1W        W39010   8.135  16.294   7.794  0.0890  0.1820  0.0916
    1W        W39011   5.353   3.543   8.058 -0.1618  0.4451  0.0091
    1W        W39012   5.437  28.562   9.373 -0.1434 -0.3139  0.1001
    1W        W39013  19.094   2.734   1.700 -0.1613  0.0845 -0.0675
    1W        W39014   3.045  22.390   0.243 -0.5003  0.2043 -0.0337
    1W        W39015  28.246  15.276   0.943 -0.0985  0.1869  0.2827
    1W        W39016  17.442   1.064   8.322 -0.0209 -0.1669  0.0440
    1W        W39017  28.553   3.951   1.270 -0.1760  0.2481 -0.2127
    1W        W39018   3.879  15.319   9.103  0.1613 -0.0568  0.2622
    1W        W39019  17.389  14.122   7.537 -0.0512 -0.1384 -0.1946
    1W        W39020   5.897  20.421   9.007  0.0562  0.1445 -0.0545
    1W        W39021  23.713  28.007   3.216 -0.0268  0.0141 -0.0074
    1W        W39022  29.125  24.900   6.875 -0.0098  0.2994 -0.3613
    1W        W39023  13.356   4.915   2.768 -0.0071  0.1858  0.3538
    1W        W39024  25.828   7.787   7.259  0.2523  0.4346  0.0551
    1W        W39025   6.980   8.449   6.934 -0.2543 -0.2042 -0.2555
    1W        W39026  28.300   4.459   0.252 -0.0270  0.1974  0.1845
    1W        W39027  26.031   1.417   2.524  0.2034  0.1961 -0.1173
    1W        W39028  12.267  14.768   1.635  0.2660  0.0204  0.0925
    1W        W39029   7.960  29.991   0.638  0.1141 -0.0238 -0.0912
    1W        W39030  18.038  29.734   6.545  0.1755  0.3118 -0.0090
    1W        W39031  17.631   7.384   2.160 -0.0645 -0.0875  0.1294
    1W        W39032   1.381   1.612   1.417 -0.3505 -0.2908 -0.1436
    1W        W39033   7.468   5.683   8.711 -0.0794  0.3328 -0.0182
    1W        W39034  24.477  19.233   8.447 -0.0303  0.3788  0.3720
    1W        W39035  23.578  17.134   6.775  0.0656  0.1904 -0.0717
    1W        W39036   6.063  11.399   8.001  0.0427 -0.2203 -0.1402
    1W        W39037   2.429  20.228   6.232  0.2565 -0.4117 -0.0759
    1W        W39038   0.232  23.713   8.949  0.0143 -0.2127 -0.0501
    1W        W39039   8.495   4.457   1.952  0.0718 -0.1587 -0.0301
    1W        W39040  13.706  17.398   0.391 -0.0716 -0.0902  0.1163
    1W        W39041  19.323  26.258   2.962  0.1241 -0.2301 -0.1075
    1W        W39042  12.675  23.431   8.912 -0.1325 -0.3358  0.1043
    1W        W39043  23.417  13.464   0.330  0.1424 -0.0383  0.2333
    1W        W39044   9.758  26.940   8.657 -0.2685  0.0190  0.2159
    1W        W39045   1.258  25.691   7.718 -0.1683  0.2348  0.1016
    1W        W39046  11.120  26.449   8.609  0.4207 -0.0796  0.2920
    1W        W39047   7.658  29.398   6.892 -0.1300  0.0289  0.0349
    1W        W39048  27.040  20.625   6.322 -0.1737  0.1484 -0.0409
    1W        W39049  22.142  14.456   1.931 -0.0606  0.3045  0.0668
    1W        W39050  14.349   2.525   8.262 -0.1275 -0.0741 -0.0139
    1W        W39051   6.698   8.451   2.729  0.1374 -0.2252 -0.0852
    1W        W39052   4.910  10.431   7.783  0.2550 -0.1738 -0.2796
    1W        W39053  29.421   3.627   1.280 -0.1095  0.1510 -0.0778
    1W        W39054   7.636  23.135   1.641 -0.0008  0.3565  0.1177
    1W        W39055  22.569  24.715   0.953  0.1289 -0.0466  0.2863
    1W        W39056   1.530  23.394   6.494  0.0179  0.0789 -0.0632
    1W        W39057   5.458  22.556   1.784  0.0673 -0.2110  0.2437
    1W        W39058  20.838  27.887   6.501 -0.2950 -0.1212  0.2185
    1W        W39059  11.912  18.501   1.877 -0.0931 -0.0815  0.0202
    1W        W39060   8.349  26.194   9.050 -0.3795 -0.0293 -0.1257
    1W        W39061   9.291  23.255   7.812 -0.1364  0.0072 -0.0058
    1W        W39062  10.408   5.000   1.219  0.0946 -0.0892  0.1071
    1W        W39063   0.434  23.368   0.236  0.2715 -0.0923 -0.2069
    1W        W39064  25.620  16.959   5.964 -0.2801  0.2333 -0.1227
    1W        W39065  28.863   3.737   2.448  0.1833  0.2298 -0.1668
    1W        W39066   2.631   3.214   7.216 -0.1406 -0.0783  0.0008
    1W        W39067   6.189  19.819   8.348  0.1337  0.0508 -0.0090
    1W        W39068   5.582   2.254   8.740  0.3214 -0.1535  0.2100
    1W        W39069   2.055   5.235   7.055 -0.2298 -0.2900 -0.0389
    1W        W39070   1.316   9.273   1.917  0.2044  0.0481 -0.0790
    1W        W39071  11.136   5.631   1.440  0.0932  0.3352  0.0771
    1W        W39072   9.093   7.070   8.633 -0.0817  0.0580 -0.0961
    1W        W39073  21.153   3.910   2.230 -0.1914 -0.0160  0.1741
    1W        W39074  24.534   9.494   2.175 -0.0843  0.0281 -0.2441
    1W        W39075  26.936  16.218   7.852 -0.3595  0.4175  0.2406
    1W        W39076   6.963   2.323   2.329  0.0336 -0.0460 -0.0981
    1W        W39077  10.712  27.246   8.253  0.1726 -0.1608  0.1713
    1W        W39078   1.212   1.747   8.032 -0.0607  0.2003  0.1390
    1W        W39079  22.119   2.016   0.555 -0.0126  0.0017 -0.1198
    1W        W39080   7.422   9.081   7.528  0.2482 -0.1656  0.0250
    1W        W39081  19.641  20.459   0.885 -0.0936 -0.2298  0.0824
    1W        W39082  22.645   4.585   7.624 -0.0075  0.0670 -0.0336
    1W        W39083  26.613  13.591   7.673 -0.2121  0.1049  0.3140
    1W        W39084  16.836  21.560   7.967 -0.1651  0.0735  0.1053
    1W        W39085  23.945  13.459   5.871  0.0308 -0.2569 -0.0055
    1W        W39086   7.968   1.526   1.038  0.1030 -0.2288  0.0916
    1W        W39087  18.576   1.653   2.352 -0.2863 -0.0489 -0.0142
    1W        W39088  23.809  20.251   0.429  0.0585 -0.1795  0.1198
    1W        W39089  25.463  25.866   6.445 -0.1248  0.0964 -0.0424
    1W        W39090  13.494   9.326   1.750 -0.0566 -0.1742  0.3297
    1W        W39091  18.865   6.425   3.064 -0.1587 -0.2590  0.0832
    1W        W39092  22.337   9.626   1.371  0.2721 -0.1895  0.0459
    1W        W39093   3.217   7.025   8.217 -0.1994 -0.2077  0.2197
    1W        W39094   8.736  22.023   6.736 -0.1881  0.1561  0.2260
    1W        W39095   0.890  13.999   1.520 -0.0241  0.2795 -0.4215
    1W        W39096  17.662  19.125   0.634 -0.2455 -0.1116  0.1185
    1W        W39097  10.317  27.311   1.332 -0.0015 -0.3542 -0.0443
    1W        W39098  13.043  14.468   2.273  0.1094 -0.0149 -0.0468
    1W        W39099   5.707  29.790   0.304 -0.0968  0.0993  0.0587
    1W        W39100  17.345   7.688   7.428 -0.1755 -0.1249 -0.2855
    1W        W39101   1.442   3.200   2.775 -0.2211 -0.2712  0.1460
    1W        W39102  21.343   6.991   8.075 -0.1465  0.0804  0.0782
    1W        W39103   6.815  24.071   9.127 -0.0792  0.2549  0.0825
    1W        W39104   4.647  24.188   7.812 -0.1334 -0.1588 -0.0362
    1W        W39105  29.633  28.714   1.732 -0.1457  0.0258 -0.0523
    1W        W39106  20.540  10.285   8.621  0.3705 -0.0578  0.0275
    1W        W39107  16.991   2.825   0.455  0.1269  0.1144 -0.1706
    1W        W39108  21.939  24.352   2.698  0.1396  0.1832 -0.0535
    1W        W39109   3.346  18.810   1.214  0.1096 -0.0428  0.1051
    1W        W39110  10.990  12.936   1.093 -0.0986 -0.3541 -0.0463
    1W        W39111  15.840  21.956   0.613  0.0189 -0.1041  0.0529
    1W        W39112   3.787   5.644   1.781 -0.0986 -0.0036 -0.2441
    1W        W39113  16.582   8.969   2.998 -0.2358  0.1053  0.3614
    1W        W39114   2.359   3.962   1.036 -0.4320 -0.1301  0.0654
    1W        W39115  29.861  29.876   0.745  0.1846  0.1165 -0.0576
    1W        W39116  16.054  18.666   0.396  0.0684  0.1678  0.1295
    1W        W39117  30.113  14.418   7.348 -0.0240  0.1335 -0.2839
    1W        W39118  23.661  12.300   0.325  0.3084  0.1368  0.0530
    1W        W39119  18.468  22.790   1.665  0.3028  0.1381  0.1729
    1W        W39120  24.980   9.625   9.176 -0.3331  0.1550 -0.0013
    1W        W39121  28.761  20.842   6.991 -0.1728  0.0731 -0.0821
    1W        W39122  23.096   9.786   1.060  0.2827 -0.0570 -0.0359
    1W        W39123   3.496   3.528   2.613  0.0162 -0.1133 -0.1372
    1W        W39124  18.706   2.576   8.388  0.0033  0.1095  0.0410
    1W        W39125  17.092   9.596   2.239 -0.1342 -0.1823 -0.0008
    1W        W39126  26.910  19.450   7.477 -0.4500 -0.0828  0.1222
    1W        W39127   9.185   9.202   9.168  0.0781  0.1717  0.2244
    1W        W39128   6.875   6.892   0.521 -0.3000  0.0247  0.0895
    1W        W39129  21.320   8.276   8.555 -0.0361 -0.0648 -0.1860
    1W        W39130  12.670  13.647   8.502 -0.0898  0.0002 -0.0604
    1W        W39131   3.461  22.133   6.880 -0.2062 -0.2183 -0.2797
    1W        W39132   5.845   5.019   1.188 -0.0063  0.0385  0.0586
    1W        W39133  13.996   9.558   1.536  0.1735 -0.4034 -0.2074
    1W        W39134  25.842  20.413   0.067  0.0570 -0.0384  0.0263
    1W        W39135  29.422  12.876   6.272 -0.0340 -0.0686 -0.2452
    1W        W39136  26.396  25.718   7.725 -0.0099 -0.0933  0.2031
    1W        W39137  19.668  13.398   7.552  0.2007 -0.0238  0.2576
    1W        W39138  17.648   0.600   9.238 -0.0572  0.1856 -0.3904
    1W        W39139   3.528  11.661   0.713  0.2057 -0.0931 -0.2636
    1W        W39140   5.729   2.598   7.111  0.0185 -0.0425 -0.0497
    1W        W39141  17.425   9.717   9.343  0.1637  0.2089 -0.0508
    1W        W39142  19.211  20.316   1.962  0.0987  0.0417 -0.1302
    1W        W39143  23.248  27.321   0.430  0.1220  0.0195  0.2116
    1W        W39144   4.959  28.848   8.961  0.0069 -0.2323 -0.0498
    1W        W39145  28.861   5.472   8.621 -0.4040  0.2450 -0.0898
    1W        W39146  21.640  11.633   8.017  0.0152  0.1580  0.1155
    1W        W39147  18.328  26.406   0.804 -0.0186 -0.1065 -0.0001
    1W        W39148   9.474  20.338   8.413 -0.1591 -0.0058  0.0781
    1W        W39149   3.010  12.230   2.832  0.1261 -0.1512  0.1541
    1W        W39150   9.616  23.473   8.133  0.0672 -0.5659 -0.1760
    1W        W39151   4.975  15.031   0.858  0.0209 -0.0125 -0.0207
    1W        W39152  17.415   0.463   7.637  0.1384 -0.1644 -0.0858
    1W        W39153  12.518  16.375   7.579  0.1823 -0.1847  0.1813
    1W        W39154  27.595   0.460   2.233 -0.1610  0.0610 -0.2815
    1W        W39155   7.310  28.589   0.700  0.1165  0.0097 -0.3008
    1W        W39156   1.899   7.002   7.231  0.2371 -0.0517  0.1344
    1W        W39157  27.683  20.659   0.623 -0.2816  0.0480  0.2777
    1W        W39158  25.707   8.118   1.605 -0.0016  0.0688  0.0372
    1W        W39159   6.164   5.553   8.108 -0.1861  0.1467  0.1037
    1W        W39160  12.015   2.371   8.763 -0.1488 -0.1857 -0.0505
    1W        W39161   5.280   8.258   0.047  0.2573  0.3453 -0.1386
    1W        W39162   6.252   6.980   3.115  0.0350  0.1954 -0.1567
    1W        W39163  21.969   7.970   6.494 -0.0244 -0.0782 -0.3034
    1W        W39164  19.868   7.604   7.826 -0.0498 -0.1600 -0.1498
    1W        W39165   8.913  29.622   9.010  0.3882 -0.2040  0.0159
    1W        W39166  24.801  21.146   2.005 -0.1519 -0.2832 -0.0884
    1W        W39167  19.949   6.196   9.330  0.0072 -0.0073  0.0892
    1W        W39168  16.804  21.864   9.165  0.2305  0.1084  0.1072
    1W        W39169   7.972  23.093   8.061  0.1272  0.1291  0.2357
    1W        W39170  29.816   4.140   8.806 -0.2259  0.1488 -0.0423
    1W        W39171  13.716  17.434   8.901  0.1710  0.2252 -0.4575
    1W        W39172  27.637  10.825   7.533 -0.4293 -0.3888 -0.2361
    1W        W39173  28.399  26.276   0.384  0.0399 -0.2811  0.1073
    1W        W39174  22.644   6.556   2.758  0.0256 -0.0537 -0.1187
    1W        W39175   6.967  20.833   2.043  0.3475  0.2641  0.1702
    1W        W39176   7.315   7.764   1.339  0.2953  0.3992  0.0039
    1W        W39177  18.597  13.526   8.293 -0.0512 -0.1856  0.1689
    1W        W39178   0.606   5.138   7.972  0.0540  0.0541 -0.4005
    1W        W39179   5.661  14.872   2.061 -0.3348  0.1555  0.1468
    1W        W39180  28.885  20.988   7.601 -0.1010 -0.0097  0.0082
    1W        W39181  28.060   6.503   1.961 -0.2125  0.1372  0.0458
    1W        W39182   4.225  19.276   0.591  0.1665  0.2225  0.0338
    1W        W39183  29.614  14.083   0.633 -0.0328  0.1947  0.0144
    1W        W39184   0.828  27.098   7.315 -0.1532 -0.3934  0.3872
    1W        W39185   9.396   7.845   2.244 -0.2943 -0.4918  0.1403
    1W        W39186   7.130  20.465   6.207 -0.3539 -0.3856 -0.1235
    1W        W39187   0.715  28.427   8.198  0.1015  0.0236  0.4424
    1W        W39188  18.816  25.398   7.309 -0.0004  0.0449  0.1726
    1W        W39189  28.422  17.440   7.331  0.5731  0.0380  0.0562
    1W        W39190  19.113   8.776   7.117 -0.2273  0.0513 -0.0976
    1W        W39191   9.254   3.257   8.355  0.0138  0.2582  0.0289
    1W        W39192   2.859   5.558   7.070  0.1382 -0.0075  0.1462
    1W        W39193   0.734  13.773   8.087  0.0425  0.1043 -0.1566
    1W        W39194   9.180   2.005   2.032 -0.2382 -0.1151 -0.2434
    1W        W39195   1.262   5.557   0.246  0.0197 -0.0993  0.3002
    1W        W39196   9.104  15.902   1.839  0.0516 -0.0742  0.2676
    1W        W39197   8.988   1.651   8.083  0.2267 -0.1387  0.0962
    1W        W39198  27.949  17.062   7.587  0.0604  0.0522 -0.1153
    1W        W39199   0.399   9.897   7.526 -0.0400 -0.0039 -0.2319
    1W        W39200  27.158  13.215   0.896 -0.1221 -0.1272  0.0535
    1W        W39201  16.251  29.495   9.320 -0.1777  0.0024  0.1290
    1W        W39202  21.979  13.084   0.711  0.1746  0.0043 -0.1369
    1W        W39203  25.855  21.319   7.023 -0.0502  0.1881 -0.3204
    1W        W39204  19.545  28.086   2.206  0.2585  0.1084  0.1342
    1W        W39205  12.100  25.289   6.976 -0.1143 -0.1721  0.0183
    1W        W39206  30.029  14.850   8.336 -0.2694  0.1007  0.1288
    1W        W39207  11.136  25.820   2.188  0.0763 -0.0405 -0.0346
    1W        W39208  23.919  27.505   2.667  0.2905 -0.1503  0.3375
    1W        W39209  18.830  25.918   6.612  0.1247 -0.1153  0.1949
    1W        W39210  26.762  28.756   9.043  0.0242  0.1302  0.1473
    1W        W39211   8.921   5.786   9.321  0.0487  0.1577 -0.0615
    1W        W39212  27.032   3.490   0.593  0.0485 -0.2420  0.0654
    1W        W39213  10.704  23.035   2.223 -0.1182  0.0061 -0.2193
    1W        W39214   4.626  11.285   9.297  0.0363  0.1170 -0.0149
    1W        W39215  20.530   7.244   9.192  0.0241 -0.3159 -0.2233
    1W        W39216   7.205  24.823   0.715 -0.2879 -0.0220  0.1660
    1W        W39217   4.141   4.799   0.378 -0.0871 -0.1838 -0.0918
    1W        W39218   4.601  26.308   1.000  0.1395 -0.0298 -0.0494
    1W        W39219  25.817  29.174   7.834 -0.2153  0.1306  0.0789
    1W        W39220   2.132  27.435   6.839  0.1564 -0.0478  0.1109
    1W        W39221  26.483   6.351   7.473 -0.1222  0.1524 -0.1562
    1W        W39222  22.862  25.836   7.458  0.0327  0.1521  0.0700
    1W        W39223   2.061  11.939   5.660 -0.1981  0.0930  0.0588
    1W        W39224  23.614  27.033   1.455  0.3724  0.1122  0.1151
    1W        W39225  16.017  24.249   1.462  0.4122 -0.0635  0.0015
    1W        W39226  16.350  28.549   9.003  0.0093 -0.6017  0.3663
    1W        W39227  14.458  19.804   8.318  0.1813 -0.1066  0.2948
    1W        W39228   8.589  23.138   0.808 -0.4982 -0.1738 -0.0528
    1W        W39229  12.259  12.967   8.117 -0.2500 -0.2840  0.0022
    1W        W39230   0.624   2.010   8.978 -0.2728 -0.0819 -0.0889
    1W        W39231   9.719  19.700   0.667  0.0602  0.0379 -0.1290
    1W        W39232  29.656   9.288   2.620 -0.1322  0.1267  0.1196
    1W        W39233  17.289  24.869   0.152  0.0802 -0.2391 -0.0324
    1W        W39234   6.355   7.493   3.081 -0.1500  0.4682  0.0306
    1W        W39235   8.499  17.381   3.113  0.2106 -0.2500 -0.0532
    1W        W39236   7.308  16.749   2.326  0.0281 -0.0314 -0.1932
    1W        W39237   2.142   6.784   8.935 -0.2178 -0.0346 -0.0088
    1W        W39238  15.211  18.222   6.916 -0.0823 -0.0129  0.1203
    1W        W39239   0.424  25.817   8.837 -0.1999  0.3070 -0.2276
    1W        W39240  15.371  19.829   9.093  0.2732  0.4076 -0.0042
    1W        W39241  21.452   4.134   2.606 -0.0100  0.0869 -0.4186
    1W        W39242   6.315  23.386   1.229  0.4051 -0.0311 -0.0914
    1W        W39243  21.816  21.333   1.291  0.0493  0.0287  0.0952
    1W        W39244   5.689   6.556   1.407 -0.3714  0.0712  0.1255
    1W        W39245   7.812  11.986   0.707 -0.0841  0.0905  0.1224
    1W        W39246  14.788  12.192   1.081  0.0663 -0.0725  0.2404
    1W        W39247  22.252   7.265   1.181  0.0482 -0.0287  0.0391
    1W        W39248  22.064  23.850   8.089  0.0679  0.0509 -0.1494
    1W        W39249   0.932   3.846   7.865  0.0044  0.3088  0.0858
    1W        W39250  13.921  26.947   2.345  0.0795 -0.1215  0.0230
    1W        W39251   8.441  19.064   0.249 -0.3079 -0.0641  0.0529
    1W        W39252   8.360  14.227   6.749  0.1357  0.2939 -0.0123
    1W        W39253  23.806   7.660   0.732  0.0330 -0.0320  0.0692
    1W        W39254   5.116  18.855   8.789  0.1343 -0.1868 -0.1976
    1W        W39255   2.690  22.277   9.203 -0.2179  0.0274 -0.0682
    1W        W39256  27.103   4.402   2.464  0.2270 -0.0359  0.0143
    1W        W39257   2.758  17.602   6.570 -0.0157  0.2690  0.1288
    1W        W39258  21.822  29.326   8.527 -0.2305  0.0369 -0.2589
    1W        W39259  29.257   4.284   0.753 -0.0331  0.0539  0.3519
    1W        W39260   3.408  10.550   6.553  0.0668 -0.0490  0.1048
    1W        W39261   9.323  15.509   9.285  0.0867  0.1088 -0.1350
    1W        W39262  27.266  26.787   7.338 -0.0482  0.1787 -0.0285
    1W        W39263   9.469   8.097   1.826  0.2539  0.1040  0.0493
    1W        W39264  18.989   0.043   1.665  0.0318 -0.4363  0.0906
    1W        W39265  15.956  27.624   2.973  0.0607  0.4176  0.2205
    1W        W39266  10.841  13.265   0.271  0.0053  0.3311 -0.1589
    1W        W39267  28.811  16.207   8.483  0.0563 -0.2498  0.0451
    1W        W39268  14.532  15.166   9.280 -0.3099  0.0143  0.2376
    1W        W39269  10.720  24.449   8.436 -0.1789 -0.1105 -0.1150
    1W        W39270   1.465  14.255   8.060  0.2156  0.3028  0.0584
    1W        W39271   7.089  12.054   8.595 -0.3770  0.2526  0.1300
    1W        W39272   7.708  25.878   0.911 -0.0925  0.1809 -0.1183
    1W        W39273  25.327  17.428   6.027  0.0713 -0.1722 -0.0930
    1W        W39274   7.250   8.886   1.474  0.0297 -0.1678 -0.1305
    1W        W39275  29.230   3.247   7.257  0.4796 -0.0196  0.1938
    1W        W39276  10.920  29.954   7.068 -0.2418 -0.4012  0.0136
    1W        W39277  20.495   1.066   2.053  0.1934 -0.2035  0.0263
    1W        W39278  23.609   4.919   7.885  0.0675  0.0878  0.4952
    1W        W39279  25.722  21.749   1.104  0.3509 -0.0805 -0.0991
    1W        W39280  28.920  11.238   6.167  0.0159  0.2358  0.0358
    1W        W39281   0.300  22.634   0.922  0.0854  0.3046 -0.0046
    1W        W39282  29.680  24.919   7.615  0.3261 -0.1540  0.3689
    1W        W39283  20.734   0.190   8.597 -0.3805 -0.3567 -0.4136
    1W        W39284   2.505   1.941   9.164 -0.0447  0.1391 -0.0238
    1W        W39285  14.824  14.361   1.860  0.0179  0.3806  0.1443
    1W        W39286   0.098  20.290   9.095 -0.2354  0.1234 -0.0846
    1W        W39287  22.247   4.995   8.964  0.0181  0.0726  0.0268
    1W        W39288  10.064  14.427   0.237 -0.1090  0.0239  0.2161
    1W        W39289  19.856  14.516   1.541  0.1441  0.0302  0.1244
    1W        W39290   2.424  14.068   0.239 -0.1187  0.0225  0.1309
    1W        W39291  30.154   8.148   0.776 -0.2353  0.4183  0.3247
    1W        W39292  22.004   4.156   2.440 -0.0136 -0.1898  0.0278
    1W        W39293  30.080  14.806   1.392  0.0841 -0.2024  0.1504
    1W        W39294   9.059  21.530   1.986 -0.1808 -0.2047 -0.1809
    1W        W39295  19.090  17.485   7.638  0.4067  0.0228  0.1166
    1W        W39296  11.464  20.162   7.056 -0.1119 -0.0618 -0.0820
    1W        W39297  17.351   9.552   8.030 -0.1544 -0.2496 -0.0469
    1W        W39298  26.655   7.374   7.180 -0.2643 -0.0575  0.1986
    1W        W39299  15.680  24.833   2.553  0.1764  0.2187 -0.1353
    1W        W39300   9.489  28.848   2.125 -0.0947 -0.2427 -0.1800
    1W        W39301  14.045   1.077   7.314 -0.0917 -0.0360  0.1635
    1W        W39302  29.732  13.643   7.122  0.0490 -0.1372  0.0380
    1W        W39303   4.907  27.173   2.091 -0.1188 -0.0783  0.0566
    1W        W39304   2.119  22.515   6.942  0.3594 -0.3916 -0.2603
    1W        W39305   8.821  26.536   2.135 -0.0762 -0.1746 -0.1516
    1W        W39306   8.568   9.082   1.748 -0.0149 -0.0609  0.2216
    1W        W39307  20.174  18.460   7.747 -0.2167  0.0249 -0.0180
    1W        W39308  11.483  26.970   6.585 -0.1527 -0.3972 -0.0817
    1W        W39309   4.665  20.810   7.754 -0.0648 -0.0860  0.2585
    1W        W39310   9.422  10.298   8.967 -0.0549  0.0516  0.1853
    1W        W39311   5.444  23.010   0.984 -0.0024 -0.0884 -0.0747
    1W        W39312   5.801  27.080   0.904 -0.1558 -0.0542  0.4891
    1W        W39313  23.100  22.191   0.281  0.3320  0.0966  0.2331
    1W        W39314  23.600  26.628   7.655  0.1541 -0.1460 -0.0480
    1W        W39315  28.392  28.882   8.158  0.2477  0.3322 -0.3104
    1W        W39316   5.209   6.497   2.074 -0.0716 -0.1437 -0.1551
    1W        W39317  29.391   3.825   1.753  0.1930  0.1740  0.1195
    1W        W39318  12.387  13.874   9.351  0.2927  0.0353  0.1545
    1W        W39319  11.446  18.966   8.755 -0.1134 -0.1102  0.0148
    1W        W39320  26.129  23.366   0.078  0.3735 -0.4006 -0.0783
    1W        W39321   8.248  28.461   0.193 -0.3118 -0.0383 -0.2152
    1W        W39322   6.762  29.994   7.911 -0.2296  0.1733 -0.0432
    1W        W39323  11.991  22.032   6.935 -0.1634  0.0382 -0.1228
    1W        W39324   3.075  18.915   0.531  0.0662  0.1533  0.1802
    1W        W39325   5.150  20.562   5.110  0.0312 -0.1177  0.0702
    1W        W39326   0.646  10.958   8.558  0.2555  0.2176  0.3145
    1W        W39327   1.277   0.908   7.520  0.2417 -0.1964  0.0022
    1W        W39328  13.327  10.655   2.728  0.2108  0.1669 -0.3075
    1W        W39329  23.474   0.165   9.103 -0.2640 -0.0671  0.1496
    1W        W39330  20.305  26.806   9.254  0.0146  0.5374 -0.0084
    1W        W39331   7.705   7.696   2.608  0.1468  0.0857 -0.1022
    1W        W39332  25.017   2.775   1.408  0.0843  0.1900  0.1156
    1W        W39333   2.504   2.295   1.616 -0.3400  0.2237 -0.0365
    1W        W39334  10.163   1.364   8.070  0.0006  0.0839  0.1503
    1W        W39335  12.774   2.382   0.729 -0.0124 -0.0146 -0.0349
    1W        W39336  21.210  13.268   7.654  0.0467  0.1247  0.1882
    1W        W39337   6.113  14.883   2.319  0.1090  0.2316  0.1778
    1W        W39338  14.926   9.575   0.266 -0.2412  0.0757  0.0136
    1W        W39339   1.992  20.424   8.859 -0.0940  0.1394 -0.3163
    1W        W39340  10.445  16.298   1.924 -0.2062  0.0238 -0.1001
    1W        W39341  15.009  24.928   0.307  0.1499  0.2025  0.1173
    1W        W39342  10.684  27.627   8.685 -0.0081  0.0467 -0.0888
    1W        W39343  26.902   4.015   8.940 -0.1282  0.2500  0.2338
    1W        W39344   6.006  28.743   3.032  0.0589 -0.0391  0.0319
    1W        W39345  10.031  10.340   1.393  0.1702 -0.1189 -0.1226
    1W        W39346  15.593   8.278   0.403 -0.1358  0.3718 -0.0717
    1W        W39347   6.549  19.796   6.206 -0.0410  0.0748  0.2127
    1W        W39348  27.925   9.923   0.216 -0.1411  0.3124  0.3505
    1W        W39349  12.544  16.301   1.232  0.0551  0.1056 -0.0471
    1W        W39350  18.938  24.973   1.741  0.2369 -0.0047  0.2105
    1W        W39351  27.165  24.814   1.868  0.3361 -0.1087 -0.0671
    1W        W39352  13.241  27.198   7.851  0.1631 -0.1760  0.0891
    1W        W39353  27.814  28.345   0.021 -0.0405  0.2946  0.2908
    1W        W39354  27.569  24.236   7.286 -0.0573 -0.1337 -0.0628
    1W        W39355  14.640  25.487   7.913  0.1233 -0.2586 -0.1526
    1W        W39356   2.209  17.509   6.561 -0.0587 -0.1908  0.0392
    1W        W39357  27.557  18.506   5.691  0.3971 -0.3504  0.1753
    1W        W39358   0.096   6.535   7.504 -0.2263  0.0307  0.1319
    1W        W39359  20.637   1.500   8.456  0.4390  0.3006 -0.2064
    1W        W39360  14.008  23.550   1.819  0.0308 -0.1073 -0.2035
    1W        W39361  23.358   7.161   8.226 -0.1137  0.0375 -0.1765
    1W        W39362   4.249  16.542   9.193  0.4107 -0.0077 -0.1747
    1W        W39363  23.047  28.511   9.323 -0.0818 -0.4241  0.1306
    1W        W39364   3.560  19.778   5.382 -0.0159 -0.1371 -0.2921
    1W        W39365  29.445  14.662   7.250 -0.2202  0.0078  0.2636
    1W        W39366  27.189  24.197   0.188 -0.0536 -0.2031 -0.3502
    1W        W39367   7.703  10.461   2.319 -0.0710  0.1440  0.2013
    1W        W39368   7.755  11.403   0.169 -0.0484  0.1455  0.4096
    1W        W39369  18.261   7.832   0.774  0.1028  0.0850 -0.1669
    1W        W39370   1.107   3.336   0.374 -0.0102 -0.0721 -0.0491
    1W        W39371  30.113   6.947   7.356  0.2083  0.1204 -0.3412
    1W        W39372   5.419  13.902   7.896 -0.0365  0.0679  0.1610
    1W        W39373  27.454   1.744   2.184  0.0458 -0.0326  0.0026
    1W        W39374  24.523  12.349   9.263  0.2577 -0.0461 -0.2117
    1W        W39375   6.082   4.566   7.680  0.0927  0.1791  0.0459
    1W        W39376  22.628  15.800   8.649  0.3139  0.0714  0.0528
    1W        W39377  22.337  10.626   9.066 -0.0786  0.0133 -0.3819
    1W        W39378   2.539  27.932   9.261  0.1811 -0.0924  0.0817
    1W        W39379  30.071   0.636   9.025 -0.5051 -0.0810  0.0077
    1W        W39380  27.178   7.324   7.125 -0.2995  0.0828 -0.0776
    1W        W39381  10.837   3.319   0.181 -0.1139 -0.1784  0.0029
    1W        W39382  11.576  21.591   7.847 -0.3223  0.3141  0.0175
    1W        W39383  29.623  26.650   9.126  0.2778 -0.4843  0.1069
    1W        W39384  19.196  10.530   8.197 -0.1948  0.2935 -0.0833
    1W        W39385  11.908  20.715   0.074  0.1272  0.1067  0.0509
    1W        W39386  23.395  22.921   0.064  0.0396  0.1727 -0.0817
    1W        W39387   0.526  28.607   1.408 -0.0231 -0.3471  0.1647
    1W        W39388  12.566  10.089   1.504 -0.0986 -0.1572  0.1750
    1W        W39389  23.599  26.835   8.158 -0.1823 -0.2101 -0.2538
    1W        W39390  24.650   5.955   2.260 -0.2460 -0.1788 -0.0802
    1W        W39391  10.171  28.382   1.535  0.0013 -0.1253 -0.2300
    1W        W39392   2.494   5.949   8.296 -0.0211 -0.1483 -0.1814
    1W        W39393  28.240  24.862   0.306  0.3453  0.1253  0.1307
    1W        W39394  21.188  22.037   0.045 -0.0960  0.1128 -0.1919
    1W        W39395  24.972   1.855   6.811 -0.0454  0.0104 -0.0699
    1W        W39396  28.660   8.721   7.286  0.0050  0.4261  0.2328
    1W        W39397  14.190   3.644   0.362 -0.0811  0.1370 -0.2810
    1W        W39398  13.780  13.343   9.211 -0.0270 -0.1900 -0.3300
    1W        W39399  13.535  20.607   0.466 -0.1392 -0.2357  0.3296
    1W        W39400  19.901  25.705   1.041  0.0721  0.3764  0.3014
    1W        W39401  17.656  29.634   0.286 -0.1297 -0.5190 -0.4329
    1W        W39402  11.050   1.906   2.336 -0.1007 -0.0197  0.2469
    1W        W39403  20.038  21.630   8.588 -0.0423 -0.1990 -0.2256
    1W        W39404  21.890  18.454   6.851 -0.0258  0.2897 -0.0193
    1W        W39405   2.749   6.209   2.429  0.0265 -0.2040 -0.0383
    1W        W39406  12.196  27.264   8.626  0.0664 -0.0772 -0.0056
    1W        W39407   5.784   9.575   0.422  0.0722  0.0839  0.0580
    1W        W39408  23.718  29.431   6.438 -0.2352 -0.0614  0.2410
    1W        W39409   4.473   4.023   1.645  0.0874  0.2084  0.0735
    1W        W39410  27.415   4.380   6.499  0.2021  0.3416 -0.0383
    1W        W39411  14.374   0.156   0.678 -0.2327  0.1882 -0.1330
    1W        W39412  13.701  16.446   8.761  0.2100 -0.0673  0.0422
    1W        W39413  20.655   1.780   3.098 -0.2523  0.0482 -0.1277
    1W        W39414  18.240  12.620   0.559 -0.3701 -0.1279 -0.2189
    1W        W39415  14.791  25.746   7.419  0.0836 -0.0967 -0.1726
    1W        W39416  26.637  27.086   8.996  0.1677  0.0806  0.3162
    1W        W39417   4.545  13.126   8.655  0.1307 -0.0631  0.3660
    1W        W39418   4.077  10.174   8.822 -0.1582 -0.0978  0.3502
    1W        W39419   4.824  16.767   7.111  0.3747  0.0392  0.0534
    1W        W39420   5.968   2.356   3.286  0.3213 -0.1397 -0.0019
    1W        W39421   4.497  18.987   6.325 -0.1376 -0.1454  0.2223
    1W        W39422  21.212  18.484   1.605 -0.0667  0.1150 -0.0157
    1W        W39423  11.775   0.451   8.743 -0.0006 -0.0149 -0.0461
    1W        W39424   5.058  21.804   8.673 -0.3442  0.1965  0.0771
    1W        W39425   7.471   4.188   8.901 -0.3882  0.3028 -0.2816
    1W        W39426  18.212  15.458   1.002  0.1524 -0.0085 -0.1163
    1W        W39427  19.750  24.380   7.088  0.1113 -0.3227 -0.1918
    1W        W39428  27.178  17.664   1.371 -0.0568  0.2394  0.1313
    1W        W39429  24.219  10.388   8.448  0.0410  0.0661  0.2427
    1W        W39430  19.881  23.030   8.261 -0.1456  0.1037 -0.0130
    1W        W39431  20.197  12.615   7.544 -0.0163  0.2333 -0.0021
    1W        W39432  16.066  26.048   6.634 -0.3499 -0.1602  0.2550
    1W        W39433  28.416   3.548   1.498 -0.2196  0.1788 -0.0675
    1W        W39434  25.718  15.784   2.283  0.1552 -0.3616 -0.0982
    1W        W39435   8.482   9.078   0.533  0.1738  0.1601 -0.0137
    1W        W39436  23.296  17.245   6.393 -0.2349 -0.0739 -0.1377
    1W        W39437  18.014  23.355   7.582 -0.0331  0.0155 -0.0819
    1W        W39438   8.634  12.204   0.162  0.0735  0.1089  0.2168
    1W        W39439  27.090   7.131   9.209 -0.0439 -0.0400  0.3879
    1W        W39440  10.763  13.927   0.995 -0.0425  0.2929 -0.2515
    1W        W39441  12.291  18.129   9.122  0.0688  0.0323  0.3134
    1W        W39442  22.253  26.978   2.807 -0.1349 -0.0809  0.0322
    1W        W39443   8.098  10.334   0.591  0.0554 -0.1872 -0.4991
    1W        W39444  19.186   0.864   9.140  0.0908  0.3948 -0.0470
    1W        W39445  12.928   3.932   7.906 -0.0348 -0.0931  0.1457
    1W        W39446  30.142  19.166   7.203  0.2093 -0.0707 -0.0958
    1W        W39447  26.326  19.098   7.789  0.0134  0.1139  0.1536
    1W        W39448  29.398   3.161   6.016 -0.0578  0.1054  0.1322
    1W        W39449   7.044  15.431   7.703  0.0839  0.2672 -0.1962
    1W        W39450   4.814  20.389   1.794  0.1025  0.0267 -0.1486
    1W        W39451  20.774   3.062   7.447  0.0536  0.2397  0.4075
    1W        W39452   6.369   5.637   2.283  0.0204  0.0075  0.0493
    1W        W39453   6.001   6.781   1.040  0.1079 -0.0034  0.2674
    1W        W39454  16.545  28.077   7.441 -0.2011 -0.1373  0.0106
    1W        W39455   2.335  25.097   6.605 -0.0512  0.0280  0.0440
    1W        W39456  18.365  13.294   7.259  0.0561  0.1542  0.0936
    1W        W39457  22.413   8.520   0.317 -0.1146 -0.0324 -0.0621
    1W        W39458  10.384   3.184   2.047  0.1263 -0.0284  0.1847
    1W        W39459  10.626   6.487   0.344 -0.2494 -0.0998  0.2184
    1W        W39460  28.971  20.561   1.153 -0.3495 -0.1622  0.0402
    1W        W39461   2.142  26.614   1.703  0.1509 -0.0798  0.0676
    1W        W39462  19.777   0.507   8.206 -0.1790  0.0552 -0.0156
    1W        W39463  14.380  10.883   0.330 -0.1491 -0.1871 -0.3382
    1W        W39464  16.762   1.989   2.363 -0.1553 -0.1254 -0.3017
    1W        W39465  23.106  24.903   8.286 -0.2378 -0.2593  0.2468
    1W        W39466  13.543  25.304   6.908 -0.0197 -0.0838 -0.0502
    1W        W39467  23.732  19.090   6.472  0.0121  0.1399  0.0963
    1W        W39468  23.877  24.049   7.320 -0.0422  0.0944  0.1443
    1W        W39469  16.976   0.933   3.754  0.1289  0.1508  0.2469
    1W        W39470  15.840  27.392   1.603  0.3027 -0.4840 -0.0104
    1W        W39471  14.031  28.076   1.854 -0.0993 -0.0205  0.2833
    1W        W39472  21.589   0.242   1.806 -0.0884 -0.0803 -0.3095
    1W        W39473  15.263  19.913   0.723 -0.1111  0.0144  0.1306
    1W        W39474  26.519   5.033   8.069  0.2222  0.2569 -0.0095
    1W        W39475  18.574   4.683   0.873  0.1469 -0.1211  0.1197
    1W        W39476  26.958  13.809   0.865  0.0131 -0.1839 -0.2705
    1W        W39477  26.989  12.677   0.856 -0.1201  0.1204  0.0110
    1W        W39478  10.478  17.491   6.813  0.3494  0.1077 -0.1471
    1W        W39479   7.572  19.348   6.610 -0.1935  0.0148  0.2618
    1W        W39480  29.806  25.494   1.667 -0.2303 -0.0869  0.2169
    1W        W39481   6.881  17.901   7.843 -0.3903  0.2794  0.0591
    1W        W39482  22.369   0.993   7.151 -0.2468  0.0508  0.2909
    1W        W39483  16.892  28.239   2.069 -0.0775 -0.2421 -0.0781
    1W        W39484  25.829  13.246   5.671 -0.0783  0.1081 -0.0941
    1W        W39485  20.452   2.975   6.545 -0.1770 -0.0840 -0.0540
    1W        W39486  11.025  24.393   8.806 -0.1227 -0.1476 -0.0215
    1W        W39487   8.415  11.115   2.001  0.2750  0.3255  0.3235
    1W        W39488  13.208   1.172   8.967  0.1508 -0.1679 -0.2958
    1W        W39489  27.828  21.432   2.307  0.0607  0.0051  0.0560
    1W        W39490  19.799   9.354   6.921  0.0099 -0.0378 -0.0583
    1W        W39491  15.605   7.570   1.993  0.1021 -0.2514  0.2992
    1W        W39492  28.992   0.117   2.755  0.0492  0.2967  0.2937
    1W        W39493   4.578  26.364   1.500  0.0453 -0.0034  0.1756
    1W        W39494  29.032   5.133   6.408  0.1726 -0.1339  0.1136
    1W        W39495  18.011  27.382   3.101 -0.1191  0.1471 -0.3558
    1W        W39496  15.951   0.744   2.349  0.2196  0.1116  0.1228
    1W        W39497   3.236   5.668   3.059  0.1398  0.0766 -0.1264
    1W        W39498  29.800   8.150   1.137 -0.3788 -0.0905 -0.1197
    1W        W39499  16.962   1.406   9.395 -0.0740 -0.0689 -0.3418
    1W        W39500   5.073  29.002   3.184  0.0189  0.2060  0.0187
    1W        W39501  19.969   2.044   2.520  0.1798  0.2487 -0.0180
    1W        W39502  19.005  17.437   0.675 -0.2337  0.0764 -0.2306
    1W        W39503   6.181  24.465   1.056  0.1865  0.1010  0.4259
    1W        W39504  27.115  10.690   0.213  0.0108  0.3727 -0.2244
    1W        W39505  26.078   3.806   1.925 -0.2297 -0.3582  0.0528
    1W        W39506  27.087  24.589   2.294  0.0506 -0.2105  0.0800
    1W        W39507   2.532   7.021   1.444 -0.0071 -0.1128 -0.3161
    1W        W39508   2.226  19.577   5.835 -0.1759  0.0286 -0.1731
    1W        W39509   1.740  27.603   8.999 -0.1731 -0.0294 -0.1280
    1W        W39510  12.379   1.627   8.102  0.1981  0.0877  0.1118
    1W        W39511  12.384   5.651   8.185  0.0246 -0.1894  0.0458
    1W        W39512  21.351   5.494   1.508  0.0337  0.0328  0.1293
    1W        W39513   3.614  15.792   8.388  0.2030 -0.4174  0.0821
    1W        W39514   7.277   5.008   0.056  0.0691  0.1156  0.3056
    1W        W39515  25.322  16.521   8.838 -0.0316 -0.1213 -0.2148
    1W        W39516  19.412  27.611   6.536 -0.0135 -0.3256 -0.2826
    1W        W39517  14.939  16.039   0.247 -0.0904  0.1144 -0.1548
    1W        W39518   4.503   3.381   7.482  0.2030  0.0796 -0.4132
    1W        W39519   3.865  28.139   9.051  0.0982  0.0261  0.0278
    1W        W39520   6.561  17.397   0.994  0.2718 -0.0711  0.0292
    1W        W39521  15.413  26.728   3.133 -0.4276 -0.1188  0.2586
    1W        W39522  20.230  11.628   9.033  0.0478  0.1477  0.2402
    1W        W39523  18.214   5.381   7.618 -0.2742 -0.0358  0.1598
    1W        W39524  24.032   4.562   1.014  0.0183 -0.0508 -0.2171
    1W        W39525  10.489  23.972   0.756 -0.0735 -0.0146 -0.2401
    1W        W39526  22.172  29.203   7.821  0.0757 -0.1102  0.0591
    1W        W39527  20.466  25.302   8.885  0.0114  0.1021  0.0966
    1W        W39528  10.649  28.302   8.827  0.0206  0.0019 -0.1712
    1W        W39529   4.674  11.708   8.951  0.0183 -0.2217 -0.1053
    1W        W39530  21.377   0.928   0.024  0.0084  0.2072 -0.1290
    1W        W39531   4.430  29.684   2.357  0.1722  0.1894 -0.0214
    1W        W39532   3.133   8.694   6.703  0.1426 -0.3374  0.1044
    1W        W39533  20.711   7.140   7.979  0.1709 -0.1798 -0.0589
    1W        W39534   7.649  11.528   1.668 -0.0193 -0.0742  0.0012
    1W        W39535   1.132  20.022   6.853 -0.2438 -0.0420  0.1517
    1W        W39536  29.870  26.180   8.939  0.0877  0.0301 -0.0139
    1W        W39537  29.022  20.580   8.640 -0.0790  0.0692  0.0143
    1W        W39538  12.677  14.687   1.333 -0.0000 -0.1173 -0.3723
    1W        W39539  22.306   0.613   1.035 -0.0653  0.2064  0.1174
    1W        W39540   2.383   7.541   6.683  0.1488  0.2584 -0.3050
    1W        W39541  16.219   4.018   1.826  0.0832 -0.0986 -0.1426
    1W        W39542  19.196  17.481   1.132  0.0036  0.0937  0.0119
    1W        W39543  24.398  14.196   6.231 -0.0126  0.1525  0.1175
    1W        W39544  24.352  25.466   8.980 -0.1162  0.3301 -0.0532
    1W        W39545   9.164  14.397   1.957  0.2009 -0.2292  0.1751
    1W        W39546  14.941  16.123   0.772  0.0156 -0.0699  0.0407
    1W        W39547   7.568   6.570   1.074  0.2975  0.0935 -0.0145
    1W        W39548  14.063  13.199   3.113 -0.2793  0.0554 -0.0645
    1W        W39549  13.379  13.927   9.079  0.0671  0.2818  0.0104
    1W        W39550  20.117  28.973   2.647 -0.0352 -0.0124  0.1318
    1W        W39551   1.060  13.456   0.350  0.0657  0.3175 -0.2653
    1W        W39552  24.120  22.610   7.227  0.0187  0.0487 -0.0521
    1W        W39553   3.348   4.237   7.364 -0.1147 -0.1773  0.1147
    1W        W39554   0.944  20.914   7.036  0.0924  0.0684  0.3035
    1W        W39555   3.353  10.871   1.179 -0.3346 -0.2110  0.2856
    1W        W39556  14.425  10.502   2.180  0.2346  0.2501 -0.0500
    1W        W39557  22.019  13.557   0.328 -0.0109  0.1718 -0.2816
    1W        W39558   8.055  18.161   8.937 -0.0576 -0.2410 -0.2307
    1W        W39559   4.654  29.606   9.186  0.0325  0.1793  0.1733
    1W        W39560  21.773  24.866   1.507  0.1978  0.0881  0.1036
    1W        W39561  12.492  26.799   8.266  0.3933 -0.0332 -0.1102
    1W        W39562   3.330   0.330   7.760 -0.0303  0.0811 -0.1287
    1W        W39563   0.414  29.385   7.686  0.1263 -0.0085  0.3212
    1W        W39564   6.091  14.069   9.131 -0.1355 -0.0549  0.4161
    1W        W39565   6.619  13.300   0.924  0.1448  0.0968 -0.0023
    1W        W39566  28.272  10.548   8.167  0.1103 -0.0494 -0.2348
    1W        W39567   1.105  15.935   0.518 -0.1059  0.0884  0.1884
    1W        W39568  25.671  27.940   0.856  0.0363 -0.1053 -0.2958
    1W        W39569  26.107  19.286   1.280  0.1485 -0.1155 -0.2301
    1W        W39570  12.897   7.254   2.251 -0.1398  0.1102 -0.1851
    1W        W39571  28.442  25.443   7.243 -0.3925  0.0155  0.1944
    1W        W39572  19.236  24.312   1.182 -0.2404  0.0508 -0.0005
    1W        W39573   2.562  23.323   2.297 -0.0483  0.0705  0.0735
    1W        W39574  24.372  11.359   1.033 -0.3175 -0.0761 -0.1393
    1W        W39575  24.102  12.733   6.541  0.2975  0.1769  0.0386
    1W        W39576  24.750  15.693   1.287 -0.0577 -0.0006  0.0916
    1W        W39577  24.213   8.319   9.351 -0.2044 -0.0575 -0.3662
    1W        W39578   2.188   2.841   7.990  0.1678  0.1428  0.1300
    1W        W39579  17.665  15.107   8.680  0.1694  0.1241  0.1978
    1W        W39580  16.696  20.844   2.018 -0.0524  0.0159  0.0031
    1W        W39581   6.963   1.350   1.168 -0.1072  0.2125  0.1292
    1W        W39582  22.678  12.333   1.475 -0.1921 -0.1350  0.2009
    1W        W39583   3.240   6.934   2.912  0.1536 -0.2442 -0.1731
    1W        W39584   8.001  14.711   7.133 -0.0743 -0.3883  0.0021
    1W        W39585   6.836  10.128   0.414  0.0906 -0.4541  0.0304
    1W        W39586   4.994  25.418   6.556  0.5360 -0.0675 -0.1519
    1W        W39587   9.058  17.843   8.779 -0.3374 -0.1932 -0.0203
    1W        W39588  14.246  18.662   1.711  0.0031 -0.1269  0.1084
    1W        W39589  24.119  10.965   9.133 -0.0275 -0.2834  0.2535
    1W        W39590  14.920   3.587   0.099  0.0589  0.1343  0.0581
    1W        W39591   7.729  10.830   1.924 -0.2209 -0.0705  0.3779
    1W        W39592  23.653  21.164   1.462  0.0696 -0.0963 -0.2115
    1W        W39593  16.241  28.091   6.954  0.1186 -0.1349  0.0608
    1W        W39594   0.255  20.222   6.858 -0.0089 -0.1064  0.0706
    1W        W39595  28.074  13.379   9.051  0.1083  0.1603  0.0290
    1W        W39596   8.818  14.328   0.143  0.0409  0.2185 -0.1135
    1W        W39597   4.696  23.077   6.231 -0.0766 -0.1121 -0.1916
    1W        W39598  16.881  26.210   7.831  0.0478 -0.1120 -0.1242
    1W        W39599  12.295  11.041   8.472 -0.2055 -0.0520 -0.0077
    1W        W39600  11.952  16.636   8.949  0.2612  0.1242 -0.0311
    1W        W39601   0.111  11.958   7.852  0.3277 -0.2500  0.1050
    1W        W39602   3.321  21.624   6.991 -0.0660 -0.2930 -0.1952
    1W        W39603  28.142  10.889   7.651 -0.1385  0.1680  0.2167
    1W        W39604  20.978  30.013   1.396 -0.1312  0.0243  0.0030
    1W        W39605   3.977   9.486   8.296 -0.0039 -0.1111  0.0697
    1W        W39606  29.008  16.557   9.241 -0.2977  0.0642 -0.3456
    1W        W39607   4.487   5.897   7.486  0.0410 -0.1491 -0.0082
    1W        W39608   9.065   4.444   6.581 -0.0830  0.0849  0.0713
    1W        W39609  17.048  13.489   1.842 -0.1251 -0.0196 -0.2061
    1W        W39610  28.151   7.029   7.376  0.1920  0.1892  0.1207
    1W        W39611   1.065  24.454   1.711  0.0707  0.1353 -0.3177
    1W        W39612  19.928  26.380   6.139 -0.0883 -0.0917  0.0826
    1W        W39613  23.583   3.917   0.141  0.1591  0.2429  0.2569
    1W        W39614   4.606  14.166   1.041 -0.0540  0.1679  0.1873
    1W        W39615  21.203  24.054   7.222  0.2104  0.1184 -0.2329
    1W        W39616   1.614  29.825   2.697  0.0891 -0.1336  0.1730
    1W        W39617  13.574  13.150   7.816  0.0384 -0.1442 -0.0324
    1W        W39618   1.220  18.791   0.249  0.0542  0.6295 -0.1975
    1W        W39619  10.580  12.905   0.487 -0.3653  0.2895  0.1776
    1W        W39620  22.083  14.779   6.784  0.1347 -0.0966 -0.4144
    1W        W39621  19.680  26.930   2.352 -0.1989  0.6271 -0.1123
    1W        W39622  28.984  22.705   6.926 -0.3013 -0.0239 -0.0785
    1W        W39623  18.571  24.278   2.827 -0.0916  0.0524 -0.0478
    1W        W39624  21.296  13.593   7.030 -0.1768 -0.1370 -0.3573
    1W        W39625  22.935   8.691   7.338  0.3702 -0.0166 -0.1083
    1W        W39626  20.765   1.288   8.028 -0.1420 -0.1336 -0.1146
    1W        W39627  15.841  17.604   0.485 -0.0121 -0.0238  0.2953
    1W        W39628  23.473   1.271   2.279 -0.2454 -0.1369  0.1021
    1W        W39629  15.746  22.523   0.628  0.2170  0.4600 -0.4632
    1W        W39630  27.512  10.854   9.384  0.2209  0.2876  0.0746
    1W        W39631  19.961  15.530   0.508 -0.1911  0.0530  0.2882
    1W        W39632   0.876  26.554   6.660  0.3437  0.1953  0.2108
    1W        W39633  28.909   5.153   9.261 -0.0200 -0.1820 -0.1129
    1W        W39634  14.665   6.300   8.625 -0.0015  0.0598 -0.1519
    1W        W39635   2.827   2.066   0.783 -0.0382 -0.1306 -0.0985
    1W        W39636   3.699  26.003   6.531 -0.1896 -0.3970 -0.3227
    1W        W39637   3.747   2.293   2.881  0.0169 -0.0640  0.2624
    1W        W39638  30.134   9.244   6.714  0.0273 -0.0168 -0.1287
    1W        W39639  13.887  20.044   6.636  0.0249  0.1920 -0.0085
    1W        W39640  16.714  14.086   2.207  0.1467 -0.2535  0.2255
    1W        W39641  23.267  22.916   6.816 -0.5166 -0.0500 -0.0707
    1W        W39642   1.169  12.608   0.528 -0.1350  0.0515  0.0414
    1W        W39643  21.082  13.247   6.214  0.0564 -0.3574  0.1682
    1W        W39644  17.401  30.112   7.889 -0.1478  0.0739  0.1563
    1W        W39645  22.369  19.445   9.263  0.0447 -0.4789 -0.2093
    1W        W39646   9.298  14.379   8.119  0.1064 -0.0364 -0.2382
    1W        W39647  20.385  25.808   7.242  0.4001 -0.0698  0.1506
    1W        W39648  23.508   0.187   1.895  0.1866  0.0650  0.1700
    1W        W39649   8.361  16.173   8.864  0.1687 -0.1180  0.1695
    1W        W39650   2.366  19.591   0.667 -0.2964 -0.0055  0.3779
    1W        W39651  13.452  26.762   6.990 -0.1064  0.1736 -0.2241
    1W        W39652  24.787  28.480   8.964 -0.1526 -0.0450  0.0569
    1W        W39653  10.822  29.163   1.897 -0.0061 -0.2876 -0.0525
    1W        W39654   8.252  13.471   7.572  0.1926 -0.1402  0.0365
    1W        W39655   9.415  12.228   3.097  0.0547 -0.1420 -0.1650
    1W        W39656  28.008  20.999   6.300 -0.0793 -0.0841  0.0082
    1W        W39657  17.864   9.414   8.195 -0.0336  0.0459  0.0508
    1W        W39658  28.725  17.313   5.969 -0.4371  0.0630  0.2583
    1W        W39659  15.959  23.653   7.667 -0.1709  0.0623 -0.0611
    1W        W39660  22.806   3.645   2.981 -0.1436  0.2869  0.0936
    1W        W39661  27.859  18.979   0.733  0.2414  0.0788  0.2731
    1W        W39662   9.654  10.369   0.016 -0.1024  0.0619 -0.0007
    1W        W39663   4.485  11.728   3.098  0.0528  0.0666  0.2223
    1W        W39664  19.147  27.758   9.390 -0.0890 -0.1028  0.2405
    1W        W39665  19.919   9.198   2.875 -0.2518 -0.0592 -0.0120
    1W        W39666  12.905  19.942   1.639 -0.2174  0.1114 -0.0490
    1W        W39667   9.785  26.171   0.480  0.2402 -0.2215 -0.1669
    1W        W39668  14.485  22.337   6.749 -0.1559  0.0213 -0.3603
    1W        W39669   4.864  27.414   0.880 -0.0219  0.0535  0.1116
    1W        W39670   8.471   5.189   0.859  0.3104  0.0224 -0.2483
    1W        W39671   1.895  15.433   2.127  0.1266  0.1917 -0.0591
    1W        W39672  17.672  19.586   6.729  0.1054 -0.2506 -0.1168
    1W        W39673   1.557  10.521   8.927  0.1526 -0.1692  0.0594
    1W        W39674  24.651  25.780   7.822 -0.1294  0.2494 -0.1192
    1W        W39675  28.812   6.779   8.218  0.1824  0.0348  0.0391
    1W        W39676  19.620  13.377   8.561 -0.3573  0.0080 -0.0685
    1W        W39677  19.723  15.187   7.689  0.1281 -0.0820  0.0234
    1W        W39678  11.413  21.542   7.249 -0.0154 -0.0028 -0.2167
    1W        W39679  21.531   7.544   7.247  0.0253 -0.1096  0.4150
    1W        W39680   0.101   8.551   1.835  0.1126 -0.0754  0.2348
    1W        W39681  13.033  29.546   8.396  0.0702 -0.0792  0.1577
    1W        W39682  29.899  22.915   1.438 -0.0693  0.1029  0.1346
    1W        W39683   8.227  14.770   2.980  0.0722  0.1411  0.0513
    1W        W39684   2.207  30.144   8.621 -0.1142  0.2990  0.1124
    1W        W39685   2.383   7.444   8.885 -0.1345 -0.1721  0.2065
    1W        W39686   9.590   8.582   8.741 -0.0169  0.0529 -0.0359
    1W        W39687  18.038  28.650   8.653  0.0315 -0.1523 -0.2881
    1W        W39688  13.783   9.655   0.063  0.0901  0.0090 -0.0554
    1W        W39689   7.415   0.083   7.903 -0.0259  0.1618 -0.1454
    1W        W39690  28.899  23.747   0.218  0.2061  0.0229 -0.2674
    1W        W39691  28.519   9.284   7.002 -0.0370 -0.2017  0.1692
    1W        W39692  26.266  25.370   9.247 -0.3303  0.2372  0.1519
    1W        W39693  24.218  17.895   9.119  0.0281 -0.4244 -0.0578
    1W        W39694  14.778  26.430   6.403  0.2657 -0.0946 -0.3081
    1W        W39695   9.978  15.938   2.569  0.0786 -0.0043  0.2706
    1W        W39696  28.527  26.325   7.606  0.0330 -0.1029  0.0605
    1W        W39697  27.613  15.973   8.013  0.0282  0.2754 -0.0361
    1W        W39698  20.355  25.363   0.376 -0.3616 -0.0709 -0.2110
    1W        W39699  25.664  11.196   1.319  0.0262  0.1023  0.2800
    1W        W39700   1.968  24.028   7.342 -0.1068  0.0285 -0.1473
    1W        W39701   5.529  17.400   7.250  0.0693 -0.1542  0.0943
    1W        W39702  27.077   9.484   6.652  0.1933 -0.4204  0.2322
    1W        W39703   2.123   5.594   2.711  0.2024 -0.2917 -0.1916
    1W        W39704  25.861  21.772   1.620 -0.2495 -0.0182 -0.1332
    1W        W39705  13.542  13.599   8.769 -0.0880  0.3863 -0.4208
    1W        W39706  14.036   0.365   2.878  0.0108  0.0813  0.1333
    1W        W39707   4.523  28.970   7.738  0.1220  0.4883 -0.1079
    1W        W39708   5.290   3.056   0.432  0.0856  0.0652  0.0791
    1W        W39709   4.957   0.913   4.031  0.0560 -0.4138  0.0689
    1W        W39710   5.304  25.861   8.677  0.1065  0.1934 -0.0831
    1W        W39711  20.824  22.775   9.254  0.0218 -0.3344 -0.0542
    1W        W39712   4.616   8.983   0.548 -0.0463  0.1031  0.0710
    1W        W39713  15.384  19.282   9.206  0.1375  0.2331 -0.1898
    1W        W39714   8.829  21.097   2.618 -0.0515  0.0350 -0.1627
    1W        W39715  26.712  21.858   7.784 -0.1496  0.1996  0.1627
    1W        W39716  29.304  11.245   7.610  0.0268 -0.3095  0.1570
    1W        W39717  26.691   4.874   6.119  0.0218 -0.4315  0.1124
    1W        W39718   1.743  27.634   2.941 -0.0058 -0.2787 -0.0140
    1W        W39719  17.516   7.740   1.843  0.0855 -0.2659  0.4234
    1W        W39720   5.636  12.176   0.135 -0.0246  0.1399 -0.1593
    1W        W39721  15.287   5.530   3.669 -0.2121  0.3939  0.0235
    1W        W39722   3.939  22.423   5.954  0.2706  0.1873 -0.0718
    1W        W39723  19.720  22.882   0.502  0.1432  0.0694  0.0758
    1W        W39724  24.933   1.143   7.036  0.0087 -0.0871  0.1724
    1W        W39725   2.586  18.488   9.259 -0.0088 -0.2526 -0.0727
    1W        W39726  24.886  18.075   7.428 -0.1483  0.1462  0.1700
    1W        W39727  29.156  24.297   0.160  0.1551  0.0915 -0.3013
    1W        W39728  15.196   7.951   0.254 -0.2969 -0.2074 -0.1226
    1W        W39729  16.636  15.048   1.972  0.0275  0.1834 -0.0325
    1W        W39730  13.496  10.322   1.098  0.1034 -0.0511 -0.2302
    1W        W39731  24.512   0.161   0.889 -0.1912 -0.2573 -0.0161
    1W        W39732  27.300   3.034   1.224 -0.1675 -0.4969  0.1665
    1W        W39733  30.092   5.904   7.700 -0.1519  0.0092  0.2555
    1W        W39734   9.674  28.167   7.144  0.2014  0.0399  0.2807
    1W        W39735   1.417  18.525   9.092 -0.0256 -0.1436  0.2862
    1W        W39736  26.751   4.264   1.664 -0.1883 -0.1197  0.2177
    1W        W39737  22.283  27.480   0.218 -0.0823  0.0553 -0.2705
    1W        W39738  11.239  22.543   0.925 -0.0849  0.2307 -0.0396
    1W        W39739  24.522   4.558   0.979 -0.1959  0.0901  0.0821
    1W        W39740   0.196  11.058   8.429  0.0773 -0.3192 -0.0864
    1W        W39741   6.497   4.925   0.898 -0.2317  0.1962 -0.0666
    1W        W39742   1.062  13.026   1.632 -0.1355 -0.2820 -0.2597
    1W        W39743  18.820  16.795   0.104 -0.1840 -0.1368  0.0497
    1W        W39744  18.879  14.129   8.913 -0.0447 -0.1659  0.2556
    1W        W39745  15.655  27.104   0.184  0.2166  0.3518 -0.1607
    1W        W39746   7.550  18.224   0.158  0.0985  0.0230  0.1497
    1W        W39747  13.687  14.237   0.040 -0.0739 -0.1021  0.0087
    1W        W39748  16.017  11.678   1.457  0.0540 -0.3619  0.3857
    1W        W39749  26.092   0.487   6.762  0.2235  0.0817  0.2014
    1W        W39750  25.746   3.303   1.829  0.2365 -0.0268  0.0622
    1W        W39751  24.444   4.952   7.390  0.1486  0.3785  0.4391
    1W        W39752  10.566  14.853   8.186 -0.1240  0.2306  0.2053
    1W        W39753   5.431   4.522   7.869 -0.0934  0.2061 -0.2198
    1W        W39754   8.390   8.260   8.978  0.1350  0.1992  0.0817
    1W        W39755   7.137  19.485   6.387 -0.0359  0.0588  0.0941
    1W        W39756  28.785  12.892   1.823  0.1202  0.1285  0.2138
    1W        W39757  22.671  26.967   0.823 -0.1248  0.2241  0.1770
    1W        W39758  13.828  13.524   7.541  0.1450  0.0649  0.1665
    1W        W39759   6.426  25.458   0.419  0.1649  0.0128 -0.5560
    1W        W39760  23.138   6.134   3.260  0.2130  0.1919 -0.5309
    1W        W39761   3.400  20.103   7.702  0.1080  0.2810  0.3673
    1W        W39762  23.888  20.406   8.538 -0.0257 -0.0167  0.0069
    1W        W39763   4.870   6.277   7.773 -0.1141 -0.0371  0.0439
    1W        W39764  26.817   7.697   8.375  0.2309 -0.3397  0.3222
    1W        W39765  20.384   6.867   1.427 -0.3336  0.2754 -0.0823
    1W        W39766  28.737   5.018   8.398 -0.0638  0.0996 -0.2558
    1W        W39767  17.934   6.487   3.180  0.0185 -0.0389  0.1253
    1W        W39768   8.567  15.773   1.535  0.1237  0.2433  0.1902
    1W        W39769  12.575  22.695   1.765  0.2360 -0.1927 -0.1155
    1W        W39770   4.614  18.174   0.479 -0.0978  0.0457  0.1833
    1W        W39771  18.595  11.052   9.101  0.2470  0.1458 -0.0208
    1W        W39772  28.031  15.648   8.084  0.0268 -0.3399  0.0304
    1W        W39773  21.566   1.170   1.965 -0.0419 -0.2241 -0.3382
    1W        W39774  28.871  12.565   7.242 -0.2264 -0.0179  0.0315
    1W        W39775  12.679   6.368   3.503 -0.2577 -0.1095  0.1503
    1W        W39776  18.876  29.220   0.171  0.2858  0.1662  0.0621
    1W        W39777  16.444   8.725   7.850 -0.1270 -0.1903 -0.0304
    1W        W39778   2.459  24.080   0.606  0.2406  0.0243 -0.1208
    1W        W39779  25.484   7.875   8.748 -0.2421  0.2817  0.2809
    1W        W39780   4.120  20.695   0.570 -0.1077  0.0358  0.1869
    1W        W39781   0.748   3.783   7.403 -0.1631 -0.3356  0.3468
    1W        W39782  24.244  24.437   8.571 -0.1309 -0.0167  0.1359
    1W        W39783  20.661  27.194   9.029 -0.1473  0.0362  0.0913
    1W        W39784  27.528  27.641   8.202  0.0815 -0.5107 -0.0069
    1W        W39785   0.225  27.869   0.970  0.2923 -0.3150  0.0063
    1W        W39786  12.436  14.011   8.225  0.1527  0.1858 -0.1570
    1W        W39787  22.735  15.119   1.037  0.1186 -0.0964  0.2081
    1W        W39788  14.861   0.392   3.980 -0.0025  0.3250  0.1787
    1W        W39789  26.583   0.981   6.076 -0.1975 -0.1083  0.0444
    1W        W39790  12.133  21.024   8.162  0.1836  0.6026  0.0847
    1W        W39791   9.354  22.392   1.688 -0.1654 -0.0881 -0.0160
    1W        W39792   6.233   6.505   8.577 -0.2386  0.0071 -0.0226
    1W        W39793  29.653  11.565   5.600 -0.0751  0.2345  0.0123
    1W        W39794  10.542  18.481   1.817 -0.1857 -0.0902  0.1706
    1W        W39795  11.718  22.412   8.369 -0.1942  0.0496  0.0693
    1W        W39796   0.550  11.472   6.635  0.0890 -0.2749 -0.0823
    1W        W39797  12.766  23.481   1.276  0.0717  0.0068  0.1348
    1W        W39798  10.189  12.103   2.117  0.1263 -0.2959  0.0658
    1W        W39799   8.847  10.117   3.032 -0.2460  0.2172  0.0855
    1W        W39800   9.916  14.299   0.690  0.2373  0.1663  0.0510
    1W        W39801   0.690  16.248   0.698  0.3579 -0.0577 -0.1358
    1W        W39802  12.609  13.185   7.593 -0.2475 -0.1637 -0.2365
    1W        W39803   6.208   4.534   0.523  0.0874  0.1508 -0.1255
    1W        W39804   8.347  22.352   5.936 -0.2154 -0.2040  0.0360
    1W        W39805   6.759  26.667   0.032 -0.0502  0.0238  0.0516
    1W        W39806   1.542  16.769   1.508 -0.0722 -0.1292  0.1445
    1W        W39807   0.226  26.039   6.267 -0.0139 -0.0681  0.0931
    1W        W39808  23.331  10.358   8.098  0.0372  0.1058 -0.0655
    1W        W39809  21.343   2.374   8.548  0.2530 -0.0579  0.2236
    1W        W39810   5.058   3.292   6.630  0.1370 -0.3322 -0.0705
    1W        W39811  26.525   2.767   1.653  0.0675 -0.1015  0.1618
    1W        W39812  27.951  14.530   1.285  0.3156 -0.1718  0.2658
    1W        W39813  25.350  18.429   6.603  0.1613 -0.0257 -0.1259
    1W        W39814  21.625  27.661   9.154 -0.1119  0.0710  0.3005
    1W        W39815  20.542  27.185   7.822 -0.2414 -0.1973  0.0420
    1W        W39816  22.754   8.461   6.859  0.0249  0.1597 -0.1497
    1W        W39817  25.202   4.137   2.107  0.0272  0.0293  0.1824
    1W        W39818  16.338  14.618   9.112  0.0958  0.1438 -0.0582
    1W        W39819  18.334  22.218   7.902  0.0351  0.0932 -0.1853
    1W        W39820   3.557  10.873   2.235 -0.0071  0.2116 -0.0258
    1W        W39821  13.367   3.438   8.171  0.1110 -0.3265 -0.1235
    1W        W39822  26.227   0.014   8.715 -0.0525  0.3529  0.4519
    1W        W39823  28.559  24.765   1.815 -0.3070  0.4881 -0.0884
    1W        W39824  22.482  22.324   7.999 -0.1615 -0.0715  0.1642
    1W        W39825  17.944   2.841   1.072  0.1739 -0.0184  0.0182
    1W        W39826  14.264  28.899   3.831  0.2226  0.1042 -0.0858
    1W        W39827  23.820   4.932   6.982 -0.1925  0.2270  0.2021
    1W        W39828  28.648   3.433   8.067 -0.1305 -0.0089  0.1824
    1W        W39829   9.086  28.018   8.980 -0.1690  0.1539 -0.1026
    1W        W39830  12.470   4.577   0.735  0.0919  0.0822  0.2758
    1W        W39831   5.452  11.241   7.264  0.0933  0.0692  0.2557
    1W        W39832  26.865  18.176   8.589 -0.1574 -0.0604 -0.0827
    1W        W39833  25.627  19.912   6.959 -0.0870  0.0129  0.1457
    1W        W39834  27.659  13.004   9.213  0.1103 -0.0285  0.1166
    1W        W39835  12.561  10.795   0.989  0.1821  0.7145 -0.1750
    1W        W39836   1.956  14.214   6.614  0.1209  0.0612  0.1213
    1W        W39837  29.911   9.323   0.195  0.0158  0.1580 -0.2725
    1W        W39838  20.186  27.742   2.592 -0.0192  0.1129 -0.3898
    1W        W39839  18.045   1.448   0.123 -0.0888  0.2018 -0.2481
    1W        W39840  15.848  18.526   7.508 -0.0397  0.2086 -0.1496
    1W        W39841   7.623  14.352   2.159  0.2333  0.0482  0.0549
    1W        W39842   2.369   8.873   0.958  0.0257  0.1125 -0.0187
    1W        W39843  29.795   7.407   0.995 -0.0941  0.1659 -0.2966
    1W        W39844  10.855  28.738   0.137 -0.1378 -0.3173  0.0047
    1W        W39845  26.114  11.591   0.176  0.2062 -0.0029  0.3115
    1W        W39846   9.249   2.744   8.266 -0.1600  0.0934 -0.1323
    1W        W39847  14.321  12.962   0.626  0.0260 -0.0115 -0.0026
    1W        W39848  16.249   5.043   1.031  0.0386 -0.0042 -0.1249
    1W        W39849  13.942  21.412   2.464 -0.0119  0.1452 -0.1006
    1W        W39850   6.264  15.877   0.659  0.0734 -0.1536  0.0908
    1W        W39851  12.162  23.039   1.202 -0.3024  0.3326 -0.2224
    1W        W39852   9.442  29.454   8.180 -0.4017 -0.1142  0.0661
    1W        W39853  13.756  19.405   1.392 -0.3714  0.0524 -0.0375
    1W        W39854   7.015  13.047   0.475 -0.2296  0.2445 -0.1209
    1W        W39855  30.127  21.800   8.075  0.2853 -0.1690  0.3040
    1W        W39856   0.537  21.400   1.271  0.0997 -0.3479  0.2053
    1W        W39857  29.688  22.027   8.930 -0.4020  0.0412 -0.1873
    1W        W39858  30.141   5.203   8.721 -0.0386  0.1567 -0.1568
    1W        W39859  21.836  28.880   0.189 -0.2551  0.0017  0.4604
    1W        W39860  12.719  14.469   7.463  0.1281  0.1202 -0.1831
    1W        W39861   7.684  27.046   5.974 -0.0860  0.0844 -0.3906
    1W        W39862   3.347   0.446   3.340 -0.0720 -0.1644 -0.2582
    1W        W39863  15.055  22.156   8.643  0.0279  0.3684 -0.1114
    1W        W39864  13.601  12.427   0.101  0.0982 -0.0481  0.0462
    1W        W39865  26.029   3.769   1.406 -0.0312 -0.0267 -0.4231
    1W        W39866   1.548   4.499   6.685  0.2485 -0.1875  0.2274
    1W        W39867  14.832  29.688   7.236  0.1514 -0.0028  0.0427
    1W        W39868  26.598  24.413   8.134  0.2171 -0.1619 -0.1202
    1W        W39869  20.531   1.782   7.677 -0.1581 -0.1241 -0.0089
    1W        W39870  22.055  25.248   0.298 -0.1970 -0.0723 -0.1666
    1W        W39871  25.885   4.610   2.404  0.2168 -0.0597  0.0546
    1W        W39872  14.872  21.636   7.603  0.0144  0.0830  0.1199
    1W        W39873  13.158   4.726   2.325  0.2355 -0.0046 -0.2776
    1W        W39874  19.945  13.958   0.889  0.0517  0.1914 -0.2154
    1W        W39875  18.831  17.359   8.550 -0.2745 -0.0313  0.2264
    1W        W39876  18.784   0.343   7.328 -0.0973 -0.2192  0.1224
    1W        W39877  13.927  19.272   7.731  0.2569  0.2303  0.2974
    1W        W39878  22.217   7.278   0.040  0.0488  0.1157  0.1981
    1W        W39879  22.849   7.269   2.101  0.1475  0.3031  0.1165
    1W        W39880   1.288  20.485   6.874  0.1635 -0.2338 -0.0652
    1W        W39881   0.150  24.050   8.106  0.1677  0.1387  0.2578
    1W        W39882  13.102  29.670   7.040 -0.2474  0.1631 -0.2832
    1W        W39883  11.073  26.310   2.272 -0.0938 -0.0697  0.0720
    1W        W39884  19.590   0.789   6.870 -0.2243  0.0425  0.0424
    1W        W39885   2.218  21.509   9.070 -0.0098  0.0642  0.0298
    1W        W39886   0.053  22.875   0.605 -0.2152 -0.1601 -0.1048
    1W        W39887  24.644  11.643   0.600  0.1520 -0.2608  0.1607
    1W        W39888  18.570  13.734   7.570 -0.0640 -0.1756  0.1129
    1W        W39889  29.187  15.893   8.775  0.2774 -0.1347  0.2786
    1W        W39890   8.550  26.807   0.318 -0.0426  0.1750 -0.1093
    1W        W39891  14.977   2.857   0.410  0.1379 -0.2868 -0.0223
    1W        W39892  20.176  26.133   8.862  0.2889 -0.0993  0.3741
    1W        W39893   6.318  18.448   8.416 -0.1940  0.0240  0.2374
    1W        W39894  12.616   5.034   3.242 -0.2438 -0.0267 -0.1185
    1W        W39895   4.833  11.096   1.392 -0.1055  0.1911  0.0189
    1W        W39896   2.967  15.909   0.968 -0.2659 -0.1583 -0.3681
    1W        W39897   4.875  27.855   7.268 -0.0886 -0.1542  0.0094
    1W        W39898  11.008  24.723   7.097 -0.1399 -0.2073  0.0325
    1W        W39899   4.327  16.888   7.256  0.0142  0.2986  0.1271
    1W        W39900  20.128  17.958   7.987 -0.0903 -0.1013 -0.1823
    1W        W39901   2.337  21.261   2.110 -0.1320  0.1984  0.0058
    1W        W39902  13.785   4.531   1.854 -0.0172  0.2774 -0.1894
    1W        W39903   0.736  15.431   8.299  0.1847  0.2804  0.0471
    1W        W39904   1.384  17.590   7.741 -0.1651  0.1628 -0.2095
    1W        W39905   5.972   5.061   1.698 -0.0771  0.1232 -0.0653
    1W        W39906  10.993  21.551   7.590  0.5927  0.1344  0.1034
    1W        W39907   9.087  10.405   1.399  0.0431 -0.0924 -0.2912
    1W        W39908  26.491  26.299   0.058 -0.2988  0.0806 -0.2591
    1W        W39909  18.447  26.740   6.703  0.1240  0.1939 -0.2179
    1W        W39910  20.206  26.647   1.569  0.1457  0.2529  0.0116
    1W        W39911  21.339   3.360   9.002 -0.4499 -0.1420  0.1039
    1W        W39912  28.007  12.383   7.481  0.2582  0.2877 -0.4848
    1W        W39913   7.256  22.568   1.574  0.0720  0.1285 -0.2824
    1W        W39914  24.309  26.714   0.040  0.4367 -0.1567  0.2329
    1W        W39915  29.302  15.108   7.071 -0.1814 -0.3879  0.0984
    1W        W39916   2.009  20.843   8.499 -0.0545 -0.1123 -0.0459
    1W        W39917  18.356  12.522   8.531 -0.1822  0.0038 -0.2684
    1W        W39918  18.785   2.779   7.909  0.0356 -0.0736 -0.2122
    1W        W39919   7.978   5.347   0.993 -0.1808 -0.3327 -0.1324
    1W        W39920  25.557  10.464   8.022 -0.0018  0.0589 -0.0113
    1W        W39921   9.156   1.664   2.351  0.1915 -0.1976  0.0164
    1W        W39922  29.213  29.082   0.299 -0.1432  0.0838 -0.2474
    1W        W39923  10.485  12.081   8.705 -0.1601 -0.0688  0.1368
    1W        W39924  12.805   6.728   1.231  0.1918 -0.0396  0.3550
    1W        W39925  13.116   4.828   3.297 -0.0153 -0.4839 -0.0172
    1W        W39926  10.388   6.851   9.125 -0.0730  0.1848  0.1009
    1W        W39927  25.387   3.329   8.097  0.0583 -0.3701  0.0135
    1W        W39928  23.084   9.182   7.097  0.4530 -0.1743 -0.0425
    1W        W39929   1.220  19.799   1.380  0.3543 -0.0413  0.0790
    1W        W39930  27.945   7.299   8.849  0.1799  0.1010  0.2727
    1W        W39931  19.291  29.824   8.500  0.2289  0.0203 -0.2339
    1W        W39932   3.333   1.228   0.825 -0.0304 -0.0462 -0.0045
    1W        W39933  16.299  23.565   8.047  0.3432 -0.0566 -0.0419
    1W        W39934  21.472   9.961   0.433  0.0389  0.0330  0.0502
    1W        W39935  21.040  28.498   3.273 -0.1732  0.0063  0.0362
    1W        W39936  28.077  13.185   0.157 -0.1020 -0.1052 -0.2007
    1W        W39937   7.140  17.273   8.489 -0.0303 -0.0496 -0.2335
    1W        W39938  11.868  20.932   2.000 -0.0893 -0.0662  0.0004
    1W        W39939  17.862   5.176   7.941  0.0659 -0.0068 -0.0404
    1W        W39940   2.139  15.296   0.403 -0.0797 -0.3000 -0.0002
    1W        W39941  28.310  11.389   7.910  0.0377  0.1446 -0.1183
    1W        W39942  11.646  27.449   1.406  0.2112 -0.1599  0.1815
    1W        W39943  27.719  16.523   0.531  0.1016 -0.1826  0.1738
    1W        W39944  18.752   4.429   2.416 -0.1539  0.3317  0.1475
    1W        W39945  16.666  17.161   0.624  0.3378  0.1076  0.1270
    1W        W39946  13.368  24.807   8.536 -0.1193  0.2734  0.0375
    1W        W39947   8.835   5.629   1.285  0.3296  0.0199  0.0203
    1W        W39948   8.316  15.311   0.713 -0.4284 -0.0191  0.2965
    1W        W39949  17.962  29.097   1.999  0.1004 -0.0921 -0.3025
    1W        W39950  15.343  25.117   2.301  0.4382 -0.2316  0.0924
    1W        W39951   8.411  27.094   1.495 -0.1500 -0.1552 -0.0664
    1W        W39952  19.203  27.759   2.527 -0.1028 -0.0414  0.1491
    1W        W39953  23.422  21.247   7.367  0.2713 -0.2652 -0.2016
    1W        W39954   8.709  25.297   9.138  0.0648 -0.0840 -0.0364
    1W        W39955  11.194   2.616   1.302 -0.2036  0.1845 -0.3221
    1W        W39956  23.582   6.040   0.217  0.1868  0.1068  0.0792
    1W        W39957   8.022  18.734   8.257  0.2333 -0.1873  0.1741
    1W        W39958  25.565  18.218   1.391  0.3099 -0.3065  0.0289
    1W        W39959  22.143  14.272   6.871 -0.0753  0.1703  0.1775
    1W        W39960   3.926  16.116   7.437  0.1040  0.0531  0.1120
    1W        W39961  16.424  26.776   3.161  0.2353 -0.1960  0.1569
    1W        W39962  14.905  27.597   0.583  0.1792  0.1114  0.0595
    1W        W39963  26.448  18.019   8.162 -0.0573  0.0816  0.2529
    1W        W39964  16.918   2.764   1.584 -0.2826  0.2913 -0.0135
    1W        W39965   7.434   8.971   8.029 -0.0482 -0.2805 -0.0053
    1W        W39966   5.850   1.447   0.375 -0.2148 -0.1091  0.1558
    1W        W39967   4.540   0.564   3.155  0.0536  0.1457  0.2224
    1W        W39968   1.450  13.721   6.344 -0.0527  0.1944  0.0530
    1W        W39969  22.687   1.988   7.273  0.2557  0.1930 -0.1443
    1W        W39970   6.173  19.977   9.223  0.3333  0.0398 -0.2523
    1W        W39971   9.208   4.377   2.472 -0.0522  0.0114  0.2607
    1W        W39972  28.152  19.312   5.487 -0.1109  0.0340 -0.1904
    1W        W39973   3.749  11.176   5.734 -0.1651  0.0217 -0.0102
    1W        W39974   2.670   2.040   7.927 -0.2113  0.1725  0.0793
    1W        W39975  23.763  27.661   1.406  0.0053  0.0867  0.2618
    1W        W39976  12.546  15.572   1.814 -0.1558  0.1853  0.1408
    1W        W39977  14.177   1.257   0.896  0.1296 -0.1704 -0.0003
    1W        W39978  20.272  25.981   1.391 -0.0964 -0.3053  0.1015
    1W        W39979  29.275  28.489   2.207 -0.1337  0.0368  0.1085
    1W        W39980  26.634  29.779   1.166 -0.3302  0.1206 -0.2789
    1W        W39981   9.415   4.104   6.673 -0.0587 -0.1741 -0.3759
    1W        W39982  20.133  13.669   7.694 -0.1212 -0.2036  0.0258
    1W        W39983  18.572   6.829   2.345  0.1178  0.0701 -0.0440
    1W        W39984   9.134  19.965   8.301  0.1312 -0.0085 -0.1084
    1W        W39985  27.349  26.911   6.824 -0.0867 -0.1827  0.2055
    1W        W39986  11.004  29.515   8.378 -0.0791 -0.0392 -0.2126
    1W        W39987  12.485  28.003   9.183  0.1798  0.3466 -0.0320
    1W        W39988   5.041  10.190   2.382 -0.0133 -0.0575  0.0466
    1W        W39989  16.518  15.416   0.243 -0.1635  0.0304  0.0967
    1W        W39990   3.492  29.484   1.948  0.4275 -0.2130  0.1191
    1W        W39991  21.261  18.807   8.807  0.1790  0.0317 -0.1552
    1W        W39992  28.220  15.174   0.144 -0.0729 -0.0348  0.0657
    1W        W39993  25.459   3.024   0.675 -0.0183 -0.0835  0.2063
    1W        W39994  24.813   1.271   7.814  0.1288  0.1605 -0.2483
    1W        W39995  27.264  18.831   8.703 -0.0143 -0.2414 -0.4950
    1W        W39996   6.261   9.025   1.694  0.1362 -0.1270 -0.3344
    1W        W39997  29.046  22.476   9.266 -0.1876 -0.4292 -0.0870
    1W        W39998   1.525  12.336   0.316 -0.2719 -0.0919 -0.4109
    1W        W39999   7.396   1.672   0.505 -0.0302 -0.2817  0.0878
    1W        W40000  22.687  25.211   7.399 -0.0626 -0.0954  0.1783
    1W        W40001   9.834  10.228   3.553  0.1937 -0.2630  0.1143
    1W        W40002  24.828  27.609   8.336  0.1200 -0.0343  0.0968
    1W        W40003   6.290  25.356   6.256 -0.2159 -0.3909  0.0420
    1W        W40004  10.754  26.202   9.298  0.0208  0.0696  0.3160
    1W        W40005  10.291   4.715   0.368 -0.0732  0.0111  0.1894
    1W        W40006   9.807   3.409   0.331  0.2198  0.0518 -0.2840
    1W        W40007  14.740   5.373   1.790 -0.3602  0.2487 -0.0091
    1W        W40008   9.912   8.945   3.791 -0.2543  0.0854 -0.1637
    1W        W40009   9.625   1.757   1.259  0.1565  0.0071 -0.0907
    1W        W40010  17.168  29.998   1.056  0.0245 -0.1808  0.0137
    1W        W40011  25.796  29.321   1.510 -0.1570 -0.2546  0.2245
    1W        W40012  15.753  15.767   9.190  0.2561 -0.1527  0.0967
    1W        W40013   2.433   1.995   0.270  0.2458 -0.1380  0.0407
    1W        W40014  19.005  15.249   7.008 -0.1028 -0.4424 -0.0093
    1W        W40015  19.264  22.646   0.278  0.1073 -0.2483  0.1286
    1W        W40016   6.731  18.097   1.700  0.0289  0.3013  0.2567
    1W        W40017   2.204   9.812   6.636  0.0589  0.2218 -0.0749
    1W        W40018   3.129  21.039   4.901 -0.1682 -0.1539 -0.3963
    1W        W40019  29.200   4.938   0.181  0.0547 -0.0884 -0.1031
    1W        W40020  26.792  10.896   0.505 -0.0128 -0.0148 -0.1041
    1W        W40021  12.994   7.643   1.876  0.1559 -0.0078  0.3346
    1W        W40022  29.098  14.418   6.990  0.0570 -0.0309 -0.2061
    1W        W40023  20.914  22.550   7.946  0.1517 -0.0597  0.0051
    1W        W40024   8.485  27.308   7.349 -0.2607  0.1031  0.1057
    1W        W40025  29.714  28.990   7.679  0.4111  0.1480 -0.1208
    1W        W40026  22.145  24.541   6.965  0.0824  0.0755 -0.0522
    1W        W40027  18.014  20.678   0.345  0.1176  0.2339 -0.4046
    1W        W40028  10.596  16.260   1.458  0.4109  0.0802  0.2239
    1W        W40029   0.528  13.310   8.624 -0.0150  0.1756 -0.0058
    1W        W40030  20.892  14.099   0.483  0.0452 -0.3223  0.2473
    1W        W40031  17.083   3.788   2.204 -0.1173 -0.3627  0.0727
    1W        W40032  22.607  10.102   0.422  0.0302  0.2739  0.1333
    1W        W40033   6.278  16.521   9.339 -0.2689  0.1236  0.0571
    1W        W40034  15.225  15.865   6.395  0.1769  0.1053  0.2471
    1W        W40035  27.408   0.143   1.814  0.1677 -0.0788  0.1848
    1W        W40036  26.292  24.022   6.764 -0.0137 -0.1416  0.0996
    1W        W40037  11.372   7.531   0.551 -0.1254  0.2246  0.1777
    1W        W40038  19.918  16.981   7.603 -0.1391 -0.0271  0.3632
    1W        W40039  16.533  24.183   1.560 -0.0360 -0.2376 -0.2095
    1W        W40040  19.448   3.976   7.071  0.0982  0.2642 -0.1792
    1W        W40041  27.859  29.634   0.415  0.3559 -0.1282  0.0050
    1W        W40042  19.189  15.448   6.538  0.1130  0.1221  0.2287
    1W        W40043  25.088   0.356   9.160 -0.2711 -0.0852 -0.1017
    1W        W40044  27.052  15.014   5.542  0.2062  0.1445 -0.0939
    1W        W40045  28.863  17.338   1.448 -0.1501 -0.0823  0.3691
    1W        W40046  28.645  20.624   8.275 -0.1206 -0.1012  0.1316
    1W        W40047  27.206  11.335   6.908  0.0221 -0.2827 -0.1551
    1W        W40048  23.350   8.478   7.391  0.1039  0.2262  0.1877
    1W        W40049  16.543  30.133   8.428 -0.0146  0.2196 -0.5286
    1W        W40050   2.576  20.365   1.456  0.0913 -0.1911  0.1270
    1W        W40051   7.456  16.411   1.390 -0.3188  0.1537  0.1232
    1W        W40052   3.322  17.514   8.460  0.0321  0.0880  0.2711
    1W        W40053  28.442   1.499   3.213  0.0204 -0.1430 -0.1537
    1W        W40054  18.519  28.364   7.678 -0.2819 -0.1003 -0.0620
    1W        W40055  29.909  12.080   2.492  0.3254  0.0844  0.0172
    1W        W40056  23.401  11.677   0.928  0.2375  0.1441  0.0051
    1W        W40057   4.605  23.519   6.369 -0.0268 -0.0431  0.0482
    1W        W40058  18.244  27.710   6.780  0.2567 -0.1598  0.1446
    1W        W40059  12.989  29.367   9.317 -0.3521 -0.1634  0.0226
    1W        W40060  19.363  22.110   1.296  0.2765  0.3214  0.2101
    1W        W40061   6.936  21.391   1.983  0.3236 -0.1367 -0.1249
    1W        W40062  26.585  11.844   9.220  0.1480 -0.0608 -0.1379
    1W        W40063   7.538   7.443   8.574  0.2808 -0.1321 -0.0361
    1W        W40064   3.396  14.411   8.947 -0.1844 -0.4238 -0.0550
    1W        W40065  10.467   2.219   0.112 -0.0816 -0.0568 -0.0544
    1W        W40066  12.751  14.682   1.881 -0.1102  0.2610 -0.1492
    1W        W40067  24.880   8.693   6.578 -0.1328 -0.1004 -0.1467
    1W        W40068   2.154  10.964   7.263 -0.2939 -0.1836  0.2153
    1W        W40069  12.541   9.459   8.734 -0.1427  0.0028 -0.0719
    1W        W40070  23.920   6.186   8.986 -0.1114 -0.1284 -0.2601
    1W        W40071  21.321  20.934   7.864  0.1108 -0.0589 -0.0414
    1W        W40072  17.583  20.624   0.632 -0.1397  0.0617  0.0494
    1W        W40073  12.494  24.752   6.963  0.0896  0.5226 -0.0227
    1W        W40074  14.941  23.045   0.627 -0.1259 -0.2451 -0.0825
    1W        W40075   9.667  10.474   3.077  0.3343  0.2097 -0.1996
    1W        W40076  19.134   6.739   1.014 -0.0002  0.1799 -0.1366
    1W        W40077  11.250   4.135   1.264  0.0301  0.0373 -0.0779
    1W        W40078   9.256   2.369   9.162 -0.3523 -0.0187 -0.0574
    1W        W40079  15.083  24.167   6.486  0.1694  0.0014 -0.3232
    1W        W40080  19.786   4.013   9.039  0.2916  0.1847 -0.1532
    1W        W40081  25.142  15.281   1.330  0.1751  0.0067  0.2270
    1W        W40082  18.966   5.934   9.390  0.0469  0.1597  0.1216
    1W        W40083   1.394  13.741   8.005 -0.1151  0.2665 -0.0290
    1W        W40084  23.050  21.149   0.232  0.1062 -0.2069  0.2517
    1W        W40085  10.814  28.640   7.902  0.0855  0.0881 -0.0751
    1W        W40086   6.054   9.288   8.862  0.1720 -0.0508  0.3185
    1W        W40087  15.545  10.538   2.358  0.3799 -0.0227 -0.0685
    1W        W40088  13.808  10.567   2.613  0.0596  0.0117 -0.1069
    1W        W40089  19.892  14.205   8.594 -0.0421  0.1779 -0.0745
    1W        W40090   3.907   5.319   7.908 -0.0238 -0.1380 -0.0876
    1W        W40091  17.601   2.352   7.707  0.1267  0.0580 -0.1088
    1W        W40092  17.183  17.375   0.681  0.3218 -0.0788 -0.0374
    1W        W40093  19.827   9.891   7.128 -0.0860 -0.2883  0.1966
    1W        W40094  14.701  10.641   7.698 -0.0324 -0.2632  0.0449
    1W        W40095   3.351   1.683   7.299 -0.0385  0.0362  0.1746
    1W        W40096  22.586  29.111   7.141  0.2089 -0.2976 -0.1769
    1W        W40097  22.206   0.364   8.366 -0.2700  0.1857 -0.1384
    1W        W40098  24.369  16.729   7.572 -0.0992  0.0292 -0.3956
    1W        W40099  14.680   2.107   7.909 -0.0779 -0.3241  0.1473
    1W        W40100  13.757  14.059   0.551  0.0241 -0.1422 -0.0585
    1W        W40101  12.643  21.205   8.347 -0.0690  0.0612  0.1144
    1W        W40102  13.220  29.595   8.861 -0.4296 -0.0535 -0.0743
    1W        W40103  16.129   3.920   2.812  0.1468  0.0148 -0.2007
    1W        W40104  19.347  23.881   0.524 -0.1087  0.1261  0.3345
    1W        W40105  19.412  14.614   0.393  0.2159 -0.3908 -0.2431
    1W        W40106  25.327  17.593   8.014 -0.2401  0.0237  0.1690
    1W        W40107  26.044  15.100   1.459  0.0892  0.2141 -0.0306
    1W        W40108  25.046  29.313   2.783  0.1708 -0.1635 -0.3572
    1W        W40109   1.490  14.776   5.987  0.2816 -0.3031  0.2127
    1W        W40110  24.274   2.634   0.583  0.0634 -0.1781  0.0171
    1W        W40111  23.351   5.436   1.361  0.0423 -0.1367 -0.0577
    1W        W40112   2.644  24.819   2.142 -0.3191  0.1190  0.2531
    1W        W40113   6.454  17.411   6.783 -0.0034 -0.0577  0.1555
    1W        W40114  25.153   3.290   9.049  0.3109  0.0769  0.2432
    1W        W40115   4.865   4.385   1.584  0.0281 -0.1205  0.1634
    1W        W40116   3.812  11.812   1.489 -0.1038 -0.0449 -0.1199
    1W        W40117   3.970  13.670   0.501 -0.1865  0.1127 -0.0332
    1W        W40118   0.260  11.869   5.944  0.1680 -0.2235  0.0518
    1W        W40119   3.473  18.242   6.809 -0.3726  0.0064  0.1722
    1W        W40120   7.503  14.852   2.264 -0.1425  0.1165  0.4406
    1W        W40121  23.283  24.530   8.019  0.0330 -0.0583 -0.1192
    1W        W40122  21.632  14.062   8.290  0.1934 -0.1144 -0.0207
    1W        W40123   2.829  10.293   0.581 -0.1952  0.2354 -0.0960
    1W        W40124   0.968   5.952   2.541  0.0403  0.0708  0.0377
    1W        W40125  12.480   1.795   1.601  0.2693  0.2772 -0.1706
    1W        W40126  13.005  25.571   8.773  0.3859  0.0360  0.0796
    1W        W40127   8.867  26.944   9.320 -0.0181 -0.0215 -0.1015
    1W        W40128   9.513  28.562   3.115 -0.3776 -0.0860 -0.0190
    1W        W40129   7.925   6.283   6.787 -0.1654  0.1617 -0.0812
    1W        W40130   8.434   1.160   1.631 -0.1322  0.0006  0.1233
    1W        W40131  25.079   0.713   8.750  0.0465 -0.0116  0.0431
    1W        W40132   7.540  21.284   0.729  0.1236  0.0850 -0.2217
    1W        W40133  11.317   8.126   1.725 -0.2477 -0.0431 -0.2761
    1W        W40134  14.269   6.444   7.733 -0.1253 -0.0349 -0.0503
    1W        W40135  15.093  14.054   9.371  0.1017 -0.1474  0.0555
    1W        W40136  17.831   6.524   7.243 -0.3316 -0.1330 -0.1413
    1W        W40137  16.569  19.771   9.223 -0.2671 -0.0737 -0.0110
    1W        W40138   2.241  23.003   1.466 -0.0061 -0.3290 -0.0731
    1W        W40139  27.851   5.190   2.036 -0.2041  0.0126 -0.1519
    1W        W40140  15.766  15.692   1.355 -0.2658 -0.1725  0.0533
    1W        W40141   5.628  21.002   0.778 -0.1668  0.1326 -0.0378
    1W        W40142  11.525   2.113   3.861 -0.2905 -0.0765 -0.1914
    1W        W40143  12.569   8.628   8.506 -0.0369  0.1059  0.4613
    1W        W40144   5.557   1.864   0.304  0.0283  0.3259  0.3397
    1W        W40145   4.417   4.493   1.340 -0.3337 -0.2899  0.0617
    1W        W40146   3.311  22.521   0.702  0.2754  0.1921  0.1756
    1W        W40147  14.381   3.459   0.830 -0.0537  0.1246  0.0312
    1W        W40148  25.803   5.300   7.018 -0.2443 -0.1963 -0.1080
    1W        W40149   7.589   7.734   8.953 -0.0083  0.2005  0.0069
    1W        W40150   1.922  10.325   6.870 -0.2084 -0.3104  0.1351
    1W        W40151  21.884   3.864   8.466 -0.2102 -0.1582 -0.0609
    1W        W40152   5.618  23.524   6.358 -0.1529 -0.1796  0.3094
    1W        W40153  18.164  19.056   0.929 -0.2033 -0.2668  0.1535
    1W        W40154  12.702   2.742   7.824 -0.4171 -0.2354 -0.3881
    1W        W40155   7.483   6.090   1.314 -0.0904 -0.1324  0.1159
    1W        W40156   5.959  18.688   8.135 -0.3194 -0.1753  0.0584
    1W        W40157   6.816   3.333   7.447 -0.3044 -0.1976  0.2651
    1W        W40158  26.371   5.934   0.422  0.0361 -0.1387 -0.1701
    1W        W40159  14.643  27.099   2.479 -0.0234  0.0427  0.1710
    1W        W40160  12.261   8.395   0.810  0.2828  0.3914  0.0792
    1W        W40161  24.944  24.843   2.037 -0.0151 -0.1558 -0.2198
    1W        W40162  10.926  24.865   0.306 -0.1169 -0.1855  0.0574
    1W        W40163  26.475  15.955   9.089  0.0263 -0.0842 -0.2264
    1W        W40164   9.262   5.962   1.405 -0.0592 -0.1329 -0.2950
    1W        W40165  10.791   1.622   2.679  0.0102  0.2135 -0.4747
    1W        W40166  10.142   8.901   9.260  0.0661 -0.0039  0.0966
    1W        W40167  23.818  10.126   8.630 -0.1252  0.0436 -0.3481
    1W        W40168  14.894  18.370   0.692 -0.1695 -0.3196 -0.3113
    1W        W40169  21.655   2.330   2.310 -0.1057 -0.1062 -0.1129
    1W        W40170   7.003  22.344   7.374 -0.0457  0.2322 -0.1283
    1W        W40171  26.844  14.408   7.514 -0.1393  0.1814 -0.0483
    1W        W40172  18.603  21.095   1.535  0.1242 -0.0220  0.1804
    1W        W40173  29.513   1.826   7.147 -0.1326 -0.1310  0.2851
    1W        W40174   5.398  28.976   7.352  0.5233 -0.1717  0.3034
    1W        W40175  23.736  29.498   3.379  0.0222 -0.2758 -0.0770
    1W        W40176  26.480   1.326   2.911 -0.0152  0.0007  0.0329
    1W        W40177  29.975  10.349   0.480 -0.0479 -0.2346 -0.1658
    1W        W40178  14.798  24.567   9.306  0.1809 -0.1183 -0.3434
    1W        W40179   8.208  11.962   7.760 -0.0079  0.2123 -0.2117
    1W        W40180   3.683   5.814   8.169  0.0160  0.0409  0.0442
    1W        W40181   5.691   6.231   1.774  0.0399 -0.1633  0.1289
    1W        W40182   1.514  18.447   1.812  0.1441  0.2656  0.1400
    1W        W40183  14.510  21.396   0.710 -0.1890 -0.1041 -0.3064
    1W        W40184   9.536  17.396   0.834 -0.0110  0.0403  0.0537
    1W        W40185   5.385   1.216   1.214  0.0228 -0.2941  0.1282
    1W        W40186  29.205  28.675   8.506  0.0042  0.0629 -0.0111
    1W        W40187  27.735  16.960   7.175  0.1207  0.1748 -0.1094
    1W        W40188  20.623  25.828   0.666  0.1591  0.2407  0.0238
    1W        W40189  25.855  22.363   7.155 -0.1199 -0.0731  0.0116
    1W        W40190   1.481  27.935   0.516  0.0646 -0.0936  0.1684
    1W        W40191  14.312  16.635   2.630 -0.1681 -0.2057  0.2424
    1W        W40192  20.142  22.321   8.358 -0.1087  0.3227 -0.0448
    1W        W40193  30.038  16.463   1.207  0.2857  0.0036  0.2317
    1W        W40194  21.821  16.613   9.084  0.1446 -0.3561  0.2293
    1W        W40195  16.706  22.886   7.779  0.0895  0.0092 -0.1312
    1W        W40196  13.518   9.287   9.033  0.0091  0.4903 -0.0194
    1W        W40197  15.170   2.164   7.684  0.0884  0.1431  0.1410
    1W        W40198   5.214   8.636   8.279  0.0674 -0.1635 -0.0065
    1W        W40199  14.387  25.177   2.929  0.1451 -0.1340  0.2512
    1W        W40200  21.461  18.882   6.584 -0.1345 -0.0054  0.0184
    1W        W40201   9.371  24.860   0.673 -0.0202 -0.2948  0.0201
    1W        W40202  17.134   0.661   7.990  0.3242 -0.0325 -0.2423
    1W        W40203  12.888  27.909   7.339  0.1440  0.0589  0.1556
    1W        W40204   4.185   7.096   1.433  0.1628 -0.0362 -0.0907
    1W        W40205  29.511   8.124   6.867  0.0253  0.0831  0.1323
    1W        W40206   3.193   7.484   0.124 -0.0340  0.1407  0.1100
    1W        W40207  11.675  10.365   2.375 -0.2720  0.0558 -0.2149
    1W        W40208  11.329  14.947   7.882  0.0949 -0.1136  0.4582
    1W        W40209  14.941  25.698   2.720  0.0020  0.3064 -0.1197
    1W        W40210   4.095  16.063   7.001 -0.2325  0.1446  0.1748
    1W        W40211   2.803  23.252   8.021  0.1391 -0.1489  0.3598
    1W        W40212  15.674   6.828   1.163 -0.1399  0.1671 -0.0223
    1W        W40213   1.029  10.628   8.277 -0.3157  0.1388 -0.0820
    1W        W40214   2.871  19.902   8.419 -0.0889 -0.2595 -0.0043
    1W        W40215   1.679   3.125   8.184  0.0828  0.0236  0.1971
    1W        W40216   4.851  10.819   6.694  0.0664  0.0183  0.1904
    1W        W40217  23.204  28.079   8.380 -0.2728 -0.3955 -0.0786
    1W        W40218  24.844  10.606   7.874  0.1505  0.1508  0.1511
    1W        W40219   1.330  15.062   6.367  0.1022  0.0103 -0.2053
    1W        W40220  16.814  23.991   7.291  0.1723  0.0785  0.0081
    1W        W40221  17.093  27.221   9.258 -0.1444  0.4291 -0.1550
    1W        W40222   4.176  15.696   6.621  0.1662  0.0788  0.1916
    1W        W40223   6.528  11.324   6.773  0.0810  0.1892 -0.0327
    1W        W40224  16.719  18.800   7.762  0.0482 -0.0682 -0.0504
    1W        W40225  27.453  10.539   2.492 -0.0464  0.0215 -0.1504
    1W        W40226  23.438  14.124   6.403  0.0104 -0.1130 -0.1229
    1W        W40227  17.591   2.240   0.020  0.0903 -0.2008  0.1282
    1W        W40228  19.442  17.890   7.190  0.2478  0.2439 -0.4399
    1W        W40229  15.583  22.754   8.324 -0.3077 -0.2433  0.0412
    1W        W40230   1.079  10.472   2.198 -0.0465 -0.2482 -0.2204
    1W        W40231  27.751  16.573   1.013 -0.0053 -0.1433  0.2431
    1W        W40232   5.748  12.131   7.488 -0.2631  0.0908 -0.0917
    1W        W40233  22.760  25.544   2.306  0.0711  0.3672 -0.1280
    1W        W40234  13.048   7.044   3.238 -0.2151 -0.3720 -0.0075
    1W        W40235   4.897   7.256   8.752  0.1358 -0.1304  0.0039
    1W        W40236  10.284   7.258   0.021 -0.0473  0.0591  0.1107
    1W        W40237   9.069   3.585   1.754 -0.2186 -0.0733 -0.1341
    1W        W40238  18.145  29.886   2.377  0.2749 -0.0084 -0.0602
    1W        W40239  14.032  19.266   9.045  0.1641  0.0534 -0.0099
    1W        W40240   1.950   4.980   0.618 -0.1726  0.1776 -0.1030
    1W        W40241   3.579  13.022   2.283  0.3031  0.0682  0.0227
    1W        W40242   2.436  13.233   8.185  0.0321  0.2076 -0.1020
    1W        W40243  18.397  16.118   1.599  0.0081 -0.1384  0.0932
    1W        W40244  24.109  24.120   9.079 -0.1163  0.0850 -0.0048
    1W        W40245  18.350   0.810   2.824  0.0101  0.2508 -0.2412
    1W        W40246  25.167  13.840   6.058  0.2270 -0.0544  0.2336
    1W        W40247  15.583  26.109   6.537 -0.2930  0.0773 -0.3548
    1W        W40248   0.378  27.212   6.413  0.1879  0.0410  0.0716
    1W        W40249  10.330  22.343   6.971 -0.0823  0.2047  0.1108
    1W        W40250  14.612   6.830   4.094  0.2325  0.1484  0.0495
    1W        W40251  17.177  16.939   2.030 -0.0820 -0.1761  0.1391
    1W        W40252   0.584   8.216   7.434  0.2246 -0.0417 -0.1267
    1W        W40253   5.986   7.702   1.849  0.1111 -0.1496 -0.2284
    1W        W40254  29.681  16.461   7.125  0.0794  0.1940  0.0029
    1W        W40255   3.981  13.418   8.420  0.0390  0.0480 -0.4447
    1W        W40256  21.137  13.522   8.905 -0.1817  0.0334  0.1734
    1W        W40257  10.246   1.392   9.022 -0.0194  0.2014 -0.3541
    1W        W40258   1.090   6.373   1.045  0.1394  0.0948  0.2045
    1W        W40259  27.117   6.516   9.035  0.0848  0.0437 -0.2143
    1W        W40260   2.840  23.600   5.770 -0.2801 -0.2298  0.0105
    1W        W40261   7.879  13.696   7.827  0.3497 -0.1030 -0.3289
    1W        W40262   1.423  11.660   5.674  0.1938 -0.1383  0.0948
    1W        W40263  22.420  23.332   9.057  0.0813 -0.0292 -0.1109
    1W        W40264   3.997   5.151   2.571 -0.0503  0.1681 -0.0307
    1W        W40265  16.074  11.448   8.648 -0.1583 -0.0973  0.2201
    1W        W40266  24.452   6.460   7.087 -0.0583 -0.0479  0.0326
    1W        W40267   8.903   3.746   9.005  0.0775  0.0689 -0.1999
    1W        W40268   7.276  12.659   0.864  0.2359  0.0676 -0.0165
    1W        W40269  19.612  27.547   9.218  0.1891 -0.1274 -0.1296
    1W        W40270   2.324  12.966   0.809  0.2583  0.0119 -0.0281
    1W        W40271  24.865   1.559   8.397  0.1541  0.3366  0.1346
    1W        W40272  17.032   4.463   2.643  0.0195 -0.0138  0.0838
    1W        W40273   3.794   7.607   0.862 -0.2274 -0.0007 -0.0926
    1W        W40274  26.920   8.516   7.418  0.0335  0.2845 -0.0580
    1W        W40275   8.337  29.972   2.599  0.1082  0.4904  0.0643
    1W        W40276   2.798  14.169   1.091  0.1256  0.1111  0.1524
    1W        W40277  21.773  29.072   6.505 -0.2976 -0.0694  0.0003
    1W        W40278  26.629   0.055   2.173  0.1161 -0.3815  0.0921
    1W        W40279   9.448   5.461   7.797 -0.0551 -0.1698 -0.0175
    1W        W40280   2.347   8.675   1.450  0.3212 -0.0686 -0.1265
    1W        W40281  29.748  24.909   0.756 -0.0669  0.3460 -0.2265
    1W        W40282  21.220  22.892   1.066 -0.1570  0.0548 -0.3850
    1W        W40283  17.574  28.407   2.482  0.2270  0.0818 -0.0401
    1W        W40284  18.259  23.614   7.984  0.3369 -0.0570  0.0194
    1W        W40285  22.525  20.635   1.576 -0.0694 -0.1728 -0.0109
    1W        W40286  29.492   0.604   8.404 -0.0483 -0.4006 -0.0462
    1W        W40287   2.402   5.422   7.587 -0.0086  0.2264  0.0092
    1W        W40288   1.941  13.253   6.204  0.0464  0.0189 -0.1655
    1W        W40289  27.921  16.346   6.603 -0.0744  0.0308 -0.1659
    1W        W40290  11.351   7.870   2.395  0.1877 -0.0114 -0.1473
    1W        W40291  14.006  11.181   0.437 -0.2154  0.1635 -0.1805
    1W        W40292   0.202  20.702   0.950 -0.1901  0.0078  0.1430
    1W        W40293   2.434  14.227   1.505 -0.2314 -0.1792  0.0124
    1W        W40294   5.160   4.361   7.451  0.5264  0.2308  0.4407
    1W        W40295  10.022   1.824   8.890 -0.0483 -0.0464  0.3788
    1W        W40296  23.212  15.524   8.220 -0.0597  0.3716 -0.2750
    1W        W40297  22.961  13.465   8.633  0.1528 -0.0337 -0.0998
    1W        W40298   4.519  16.180   8.268 -0.1170  0.1754 -0.0892
    1W        W40299   6.527  23.339   8.196 -0.3580  0.1168 -0.0092
    1W        W40300  18.282  25.064   8.156  0.4159 -0.0608 -0.1369
    1W        W40301   1.716  27.112   8.716  0.3787  0.1565  0.2465
    1W        W40302  10.544   8.647   8.360 -0.1122  0.0019  0.0472
    1W        W40303  19.152  21.733   0.947 -0.0246  0.2369  0.2405
    1W        W40304  29.167  23.880   6.296 -0.1823  0.2434  0.0328
    1W        W40305   6.306  24.157   6.396 -0.1272  0.1843  0.2219
    1W        W40306  13.951  24.979   7.591  0.1189 -0.1496 -0.0141
    1W        W40307  15.795  20.246   2.096 -0.0145 -0.1979  0.0674
    1W        W40308  16.679   1.707   0.252 -0.2590  0.1248  0.1139
    1W        W40309  13.908  15.965   8.420  0.0443  0.1662 -0.0719
    1W        W40310   6.466   7.803   2.088  0.3166  0.3015 -0.2110
    1W        W40311   8.211  25.289   6.214 -0.1439  0.3070 -0.0098
    1W        W40312  12.044  26.114   1.601  0.1530  0.0486 -0.1350
    1W        W40313   6.672  24.256   6.838  0.2442 -0.2747  0.0749
    1W        W40314   7.987  11.132   1.612  0.0168 -0.2175 -0.0555
    1W        W40315  25.365   6.610   8.383  0.0346 -0.3185  0.1253
    1W        W40316  21.970  18.947   6.622 -0.0410 -0.1238  0.0300
    1W        W40317   5.627  24.224   8.890 -0.0512  0.0112 -0.1249
    1W        W40318  19.077   1.064   0.165 -0.0065  0.1170 -0.2974
    1W        W40319  10.407   1.612   1.142 -0.0264 -0.1131  0.0294
    1W        W40320  10.385  15.116   7.748 -0.0174 -0.0069  0.1967
    1W        W40321  14.030   6.327   4.194 -0.1079  0.0365  0.1711
    1W        W40322  11.664  22.477   0.037 -0.1317  0.0201  0.1229
    1W        W40323  11.168  25.052   6.712  0.0976 -0.0377  0.1785
    1W        W40324  29.916   9.366   1.681  0.0564 -0.0379 -0.0413
    1W        W40325   9.111   0.552   7.470 -0.1103  0.0060 -0.0486
    1W        W40326   0.055  16.616   6.143  0.1108  0.1625  0.3669
    1W        W40327   0.119  27.529   0.269  0.1410 -0.3077 -0.1265
    1W        W40328  24.625  21.602   9.012  0.3187 -0.0964  0.1025
    1W        W40329   0.870  24.296   0.246  0.0542  0.1002  0.0052
    1W        W40330  28.070   3.152   8.705 -0.0515  0.1799  0.0869
    1W        W40331  11.115  28.967   3.270 -0.1669 -0.0688 -0.0128
    1W        W40332  26.595   1.081   0.997  0.0233 -0.1739 -0.2304
    1W        W40333  19.555  10.016   0.925  0.2310 -0.1652 -0.4209
    1W        W40334   0.714  18.825   5.518  0.3567 -0.0211  0.2161
    1W        W40335  17.204  20.740   2.388  0.4050  0.0963 -0.0162
    1W        W40336  18.307  13.878   1.328 -0.1554 -0.0227 -0.0210
    1W        W40337   6.533   9.000   2.130 -0.1339 -0.1348 -0.0034
    1W        W40338  19.709  11.308   7.546 -0.0688  0.1861  0.0320
    1W        W40339   7.757  25.198   0.126 -0.0286  0.0582 -0.3355
    1W        W40340  17.525  12.401   9.223  0.1816  0.1397  0.2988
    1W        W40341  28.210  15.548   0.519 -0.0678 -0.5628 -0.2828
    1W        W40342  29.497   7.880   2.422  0.0155  0.2710  0.3428
    1W        W40343  10.111  13.500   9.150 -0.2350  0.4317 -0.0987
    1W        W40344  20.059  23.595   7.667 -0.0641  0.0745 -0.1350
    1W        W40345  11.169   3.107   0.499 -0.0161  0.0393  0.0702
    1W        W40346   0.316  17.237   8.368 -0.0326  0.2650  0.0553
    1W        W40347  27.217   8.846   1.669 -0.2589  0.1195  0.1710
    1W        W40348  25.927  29.868   2.891 -0.1523  0.3226 -0.1626
    1W        W40349  28.268   9.782   6.059 -0.0225 -0.2614  0.2541
    1W        W40350  28.655   9.875   8.864  0.0327  0.1176  0.0012
    1W        W40351  28.760   2.049   8.192 -0.1566  0.0724  0.0247
    1W        W40352   2.488  22.099   1.078 -0.2754  0.3734 -0.0722
    1W        W40353   5.217   8.734   1.172  0.0765  0.1399 -0.0642
    1W        W40354  14.963  19.170   1.035 -0.0709 -0.0905 -0.1546
    1W        W40355  28.567   4.842   9.400  0.0781  0.4213 -0.3422
    1W        W40356  22.318   5.591   1.213  0.0266 -0.0870  0.0703
    1W        W40357  18.428  13.825   0.245 -0.0433 -0.0303  0.0270
    1W        W40358  10.507  16.745   7.124 -0.0330  0.1899  0.1001
    1W        W40359  25.910   6.694   7.241  0.1541  0.3412 -0.2447
    1W        W40360  11.935   6.394   7.733 -0.1614  0.3148  0.4628
    1W        W40361  16.292  16.801   7.578 -0.1041 -0.0849 -0.1004
    1W        W40362  20.495  10.449   0.988  0.1031 -0.1873  0.3281
    1W        W40363  15.651   4.598   2.522  0.2743 -0.0904  0.0434
    1W        W40364   3.101  13.321   0.888  0.0861 -0.1895  0.2528
    1W        W40365   9.115  28.850   0.670  0.1109 -0.0283  0.1468
    1W        W40366   9.718  15.638   8.383 -0.2757  0.0224 -0.0574
    1W        W40367  21.037   9.609   8.308  0.0422 -0.1737 -0.1120
    1W        W40368   9.772   1.055   8.077 -0.2367  0.0214 -0.0782
    1W        W40369  25.632  11.964   7.485  0.1789  0.0636  0.0884
    1W        W40370  25.171  23.736   7.772  0.1286  0.1230  0.2025
    1W        W40371  21.879  28.378   0.173 -0.1135  0.0024  0.1952
    1W        W40372   9.454   0.085   9.289 -0.2101  0.0751  0.2146
    1W        W40373  22.075  10.051   0.468 -0.0152  0.0586  0.1591
    1W        W40374  17.090  10.901   8.204 -0.1625  0.0201  0.0880
    1W        W40375  17.181   2.540   8.569  0.1460  0.0093 -0.0835
    1W        W40376  23.163  25.559   3.216  0.0363 -0.0190 -0.1978
    1W        W40377  28.393  12.607   7.315  0.1418  0.2896  0.0937
    1W        W40378  12.116  19.166   8.408 -0.3476  0.1100  0.1939
    1W        W40379  15.852   2.550   8.215 -0.0211 -0.0325 -0.0928
    1W        W40380   5.264   8.224   1.116 -0.2006  0.2636  0.1273
    1W        W40381  22.166  27.004   0.282 -0.0963 -0.0799  0.0475
    1W        W40382  10.875   0.684   0.122  0.0547  0.1372 -0.0069
    1W        W40383  24.386  14.117   8.086 -0.2467 -0.4075 -0.2266
    1W        W40384  10.801  18.874   7.235  0.4126 -0.1396  0.1206
    1W        W40385  28.053  26.328   5.863  0.3081 -0.1369  0.2933
    1W        W40386  16.510  25.175   1.491  0.1945 -0.1333  0.3130
    1W        W40387  11.622   9.743   0.986  0.3407 -0.1706 -0.3074
    1W        W40388   5.656  20.193   6.701  0.0966  0.0509  0.0259
    1W        W40389   0.305   8.132   1.579 -0.2561  0.1191  0.0972
    1W        W40390  26.555  12.171   8.511 -0.0776  0.0429  0.0503
    1W        W40391  23.975  26.015   8.324 -0.0679 -0.2562 -0.0004
    1W        W40392  17.508  26.972   8.827 -0.0220 -0.0106  0.2233
    1W        W40393  10.736  19.355   1.798  0.3356  0.0336 -0.1896
    1W        W40394  26.240  22.607   0.378 -0.0284 -0.0246  0.3853
    1W        W40395  19.580   6.009   7.235  0.0815 -0.0319  0.0373
    1W        W40396   1.340  26.817   8.498 -0.1196 -0.0534  0.1748
    1W        W40397  14.771  11.743   1.424 -0.0119 -0.0887  0.1711
    1W        W40398   1.244  12.101   9.353 -0.0938 -0.0584  0.1846
    1W        W40399  14.491   7.789   0.521  0.1794  0.1558  0.0327
    1W        W40400   4.231  21.121   6.238 -0.3829 -0.1873 -0.0928
    1W        W40401  16.766  11.419   7.093  0.2342  0.0898  0.1079
    1W        W40402  26.699   5.525   8.084  0.2878  0.4894  0.0027
    1W        W40403   3.925  17.793   0.233 -0.1654  0.1078 -0.3417
    1W        W40404  13.011   5.245   3.011 -0.0286 -0.1658  0.2420
    1W        W40405   1.395  14.305   8.609  0.0636 -0.0758 -0.1418
    1W        W40406   5.259  26.300   7.392  0.0943 -0.1347 -0.1310
    1W        W40407  16.705  13.827   8.172  0.2944 -0.3879  0.0066
    1W        W40408  12.433   5.897   2.005  0.1203  0.2576  0.0834
    1W        W40409   5.253  10.012   0.575  0.1531  0.0799 -0.0638
    1W        W40410  23.090   9.282   0.723 -0.3085  0.0202  0.0155
    1W        W40411  12.671  21.563   7.744 -0.1064 -0.0563 -0.1390
    1W        W40412   9.873  11.166   0.398  0.1036 -0.1988 -0.1582
    1W        W40413  19.643  21.288   8.687  0.0883 -0.1765 -0.0250
    1W        W40414   5.446  19.211   6.077  0.3223  0.2151 -0.1723
    1W        W40415   5.041   4.764   1.957 -0.3347 -0.1178 -0.3434
    1W        W40416  15.451  29.392   2.806  0.0919 -0.1792 -0.3431
    1W        W40417   8.616   8.725   8.518  0.1473  0.3036 -0.4232
    1W        W40418  21.328  29.872   6.229  0.0391 -0.1420  0.1575
    1W        W40419  27.572  26.871   1.824  0.0413  0.3787 -0.2335
    1W        W40420  29.390  14.549   0.371  0.2733  0.0516  0.4122
    1W        W40421  27.764  11.195   0.755  0.0685  0.0171 -0.2471
    1W        W40422  26.407  18.845   9.182  0.1632 -0.1314  0.0050
    1W        W40423   2.696   4.455   8.979 -0.1305 -0.0576 -0.0092
    1W        W40424  20.029  16.675   8.572 -0.1049 -0.0736  0.2014
    1W        W40425  17.309  10.416   7.189 -0.2260 -0.0835  0.1346
    1W        W40426  20.574   5.705   9.262 -0.2606  0.1558 -0.1740
    1W        W40427  25.969  29.412   9.260  0.4032 -0.0859 -0.1179
    1W        W40428  26.284   2.380   7.555  0.1209 -0.0024 -0.3127
    1W        W40429   2.881   7.225   6.368 -0.0395 -0.0199 -0.2893
    1W        W40430  17.041   4.917   8.118 -0.4613 -0.1254  0.2037
    1W        W40431  26.087  28.095   7.677 -0.0074 -0.1174  0.1426
    1W        W40432  23.825   4.958   1.836  0.0398  0.3552 -0.2035
    1W        W40433  12.313  29.906   0.320  0.2508 -0.0005  0.1085
    1W        W40434  23.287  14.811   1.343  0.0001  0.0364  0.0060
    1W        W40435   3.700  23.861   0.196 -0.0102 -0.2049  0.2333
    1W        W40436   4.228  21.365   7.731 -0.0789  0.1450  0.2025
    1W        W40437   8.432  11.033   7.914 -0.2078 -0.0132 -0.0116
    1W        W40438   6.738  20.897   9.395 -0.2683  0.0579  0.1587
    1W        W40439   7.117   3.607   1.141  0.0940 -0.0120  0.1845
    1W        W40440   4.575   2.470   7.139  0.0623  0.1390 -0.0377
    1W        W40441   5.095  13.446   7.947 -0.1729 -0.1855 -0.3164
    1W        W40442  13.684   8.308   2.949 -0.1635  0.2489  0.1013
    1W        W40443  12.754  24.757   2.149 -0.2125  0.0048 -0.3111
    1W        W40444   7.551  14.095   8.498  0.3158 -0.0742  0.0174
    1W        W40445  29.357  13.254   7.313  0.0431 -0.2739  0.1100
    1W        W40446  28.321  14.022   7.703 -0.1636  0.1169 -0.2376
    1W        W40447  22.470   8.488   7.227  0.0829  0.0517 -0.1172
    1W        W40448  23.527  22.678   9.041  0.2924  0.0089 -0.2194
    1W        W40449  19.106   3.562   8.742 -0.0215 -0.2115  0.3326
    1W        W40450   1.469  26.659   8.047  0.1344  0.2514  0.0601
    1W        W40451  20.124   2.410   7.683 -0.0339  0.0842 -0.0762
    1W        W40452   7.478  28.475   2.832  0.0921  0.0762 -0.1688
    1W        W40453  22.288   1.102   8.058  0.2288  0.0802 -0.1257
    1W        W40454  28.510  19.319   6.789  0.0245  0.0969  0.0015
    1W        W40455   7.688  27.087   6.836 -0.0705  0.1067 -0.0777
    1W        W40456   8.163  24.670   2.242 -0.0123 -0.0397  0.0647
    1W        W40457  16.379   7.179   2.446  0.1280 -0.0839  0.0198
    1W        W40458   5.600   6.042   0.707 -0.3371 -0.1896  0.0481
    1W        W40459   9.507   8.506   8.256 -0.0087 -0.2915  0.6464
    1W        W40460  29.604  24.721   8.684 -0.1385  0.2856  0.2330
    1W        W40461  14.743   4.165   0.877  0.2289  0.0115  0.2297
    1W        W40462   9.081  19.217   7.176 -0.2454 -0.1075  0.0965
    1W        W40463   4.806   6.490   6.575  0.2053  0.1403 -0.0628
    1W        W40464   9.173   8.951   3.204  0.0750  0.0682  0.0115
    1W        W40465   7.929  16.073   6.596  0.2166 -0.1479 -0.2213
    1W        W40466  18.042  22.104   1.864  0.2706  0.1530  0.0763
    1W        W40467  29.995   1.379   0.831  0.3533  0.1110  0.2630
    1W        W40468  25.513   8.787   3.179  0.1136 -0.0590  0.0977
    1W        W40469   9.446  12.647   0.713 -0.1204  0.2016  0.1277
    1W        W40470   2.178   9.462   8.757  0.1016 -0.2490  0.1154
    1W        W40471   8.996  22.454   6.790 -0.0990 -0.1555 -0.1905
    1W        W40472   9.644  22.970   8.228 -0.4086  0.0482 -0.3064
    1W        W40473  12.511   0.663   2.527  0.0936 -0.0646  0.0283
    1W        W40474  15.717   0.133   3.543  0.0388 -0.0963  0.0359
    1W        W40475   6.611  11.203   8.126  0.2748  0.3304 -0.0499
    1W        W40476   1.573  11.946   0.938  0.1127 -0.0733 -0.0252
    1W        W40477  27.671  13.441   7.741 -0.3348  0.0150  0.1357
    1W        W40478   2.783  24.097   1.568 -0.1786  0.0579  0.3298
    1W        W40479  16.859   6.587   8.042 -0.3366 -0.0650 -0.2555
    1W        W40480  17.969  27.037   1.986 -0.1694 -0.0395 -0.1135
    1W        W40481  30.037  22.004   1.957 -0.1332 -0.2045 -0.1601
    1W        W40482  27.031   9.279   1.488 -0.1160  0.6207 -0.3643
    1W        W40483  16.389   9.772   0.133 -0.0015 -0.1435 -0.3071
    1W        W40484   0.816   4.054   2.152 -0.1869  0.0642 -0.1314
    1W        W40485  17.356  13.035   8.911 -0.3453  0.3697 -0.1207
    1W        W40486  16.353   1.732   2.636  0.2568 -0.0697  0.1132
    1W        W40487   4.200  19.957   0.981 -0.0695  0.1230  0.0139
    1W        W40488  26.091  15.631   5.690 -0.3142  0.2111  0.5487
    1W        W40489  30.105  11.056   1.987  0.2209  0.1836 -0.3880
    1W        W40490  17.774  16.788   7.436  0.0526 -0.2623 -0.1344
    1W        W40491  30.034  23.341   7.703  0.0573 -0.0377  0.3352
    1W        W40492  17.763   3.145   1.946 -0.0730 -0.1663 -0.1316
    1W        W40493   8.981   7.638   0.499 -0.1030  0.0800 -0.1344
    1W        W40494  21.327  29.626   0.146  0.1313  0.0689  0.1126
    1W        W40495  28.919  26.727   2.125 -0.1001 -0.2232 -0.0005
    1W        W40496  26.926  23.539   0.421  0.0633 -0.1686  0.1074
    1W        W40497  26.375   6.546   1.362 -0.2694  0.0921  0.1505
    1W        W40498  28.647  15.195   0.616 -0.1709 -0.3808 -0.0942
    1W        W40499  13.461   4.234   4.257 -0.0178 -0.2079 -0.0382
    1W        W40500  24.924  29.342   2.035 -0.0120 -0.1214  0.1383
    1W        W40501  15.793  30.046   0.867 -0.4257  0.1238  0.2158
    1W        W40502   4.051   9.894   1.535 -0.0279  0.0528 -0.0726
    1W        W40503  21.418  27.648   0.362 -0.2725 -0.0115 -0.1606
    1W        W40504   2.962   5.193   7.385 -0.0677  0.0583 -0.1300
    1W        W40505  29.165   5.106   2.757 -0.0683  0.0403 -0.0217
    1W        W40506  12.447  16.427   6.716 -0.2931 -0.1099 -0.1259
    1W        W40507  29.743  29.481   8.421  0.2374 -0.1340  0.3041
    1W        W40508  18.956   9.366   1.119  0.1097 -0.1751 -0.4406
    1W        W40509  22.892  17.583   6.625 -0.0347  0.1211  0.0573
    1W        W40510  13.437   5.180   7.994  0.0156 -0.2478 -0.1132
    1W        W40511  19.967  23.740   0.155 -0.0179 -0.0869  0.1374
    1W        W40512  27.041   7.626   0.486  0.2127  0.0601 -0.1260
    1W        W40513   4.118  11.331   6.406 -0.0874 -0.1104  0.1816
    1W        W40514  15.664  12.705   0.360  0.2966  0.1001 -0.0041
    1W        W40515   5.340  17.933   1.292 -0.1141  0.0055  0.1651
    1W        W40516  12.782  26.049   8.905  0.1290 -0.1888 -0.0241
    1W        W40517  26.533   4.142   6.605  0.0508 -0.1278  0.1081
    1W        W40518  29.508  25.830   1.318  0.0476  0.1881  0.4213
    1W        W40519   0.212  27.141   8.584 -0.0577  0.0692 -0.0105
    1W        W40520  16.819  17.503   8.414 -0.0913  0.1042 -0.2033
    1W        W40521   8.680   9.111   3.302 -0.1593 -0.4470 -0.1783
    1W        W40522  26.372  23.282   6.397  0.0635  0.2178 -0.0666
    1W        W40523  14.544  27.476   9.103  0.0870 -0.1888  0.1722
    1W        W40524  18.545  29.721   0.618  0.2782 -0.0086 -0.0050
    1W        W40525  20.203  26.919   2.863 -0.1730  0.3028  0.0747
    1W        W40526  21.011   7.015   1.824 -0.1560  0.1460  0.0804
    1W        W40527  12.853  20.047   9.304  0.1564  0.0595 -0.1301
    1W        W40528  20.438  17.468   1.106 -0.0733 -0.2421  0.1239
    1W        W40529  25.814  27.831   0.167 -0.0661  0.0705 -0.0444
    1W        W40530  11.235  27.519   1.108 -0.1411 -0.0885 -0.1157
    1W        W40531   9.386   1.893   9.143 -0.0370 -0.1575  0.0489
    1W        W40532  14.650   7.903   3.349  0.1324  0.0508  0.0842
    1W        W40533   0.006   9.060   0.576  0.1443  0.2549  0.3818
    1W        W40534  23.715   7.561   9.167  0.1101 -0.0403  0.0019
    1W        W40535   4.772  16.109   0.724 -0.2233  0.0512  0.0906
    1W        W40536  19.973   8.248   1.577  0.2643 -0.0624  0.0422
    1W        W40537   3.473  25.311   0.662  0.2221  0.0639  0.1015
    1W        W40538  19.099   7.190   1.220 -0.2634  0.3550  0.1712
    1W        W40539   5.072  26.851   6.274  0.0867 -0.0284 -0.2401
    1W        W40540  10.993   7.158   8.107  0.3658  0.0013 -0.0049
    1W        W40541  29.720   1.891   1.182 -0.2107 -0.1193 -0.1199
    1W        W40542  24.499  28.440   2.302  0.1337 -0.0241  0.0162
    1W        W40543  20.125   5.377   8.994 -0.2196  0.0636 -0.1751
    1W        W40544  11.303  27.425   0.154  0.0057  0.0980 -0.1524
    1W        W40545  10.270  18.171   6.885 -0.0182 -0.2950  0.1438
    1W        W40546  21.260   6.200   9.196 -0.2041  0.1426  0.0526
    1W        W40547  18.552   4.657   8.559  0.2568  0.1659  0.1357
    1W        W40548  24.723  24.149   8.907  0.2386  0.1822  0.1296
    1W        W40549  21.368   4.802   7.321 -0.1894  0.0835  0.3782
    1W        W40550   9.631  10.080   1.423 -0.1441  0.0647 -0.0818
    1W        W40551  29.434  11.472   8.588 -0.3761  0.2183  0.3093
    1W        W40552  14.193  14.228   8.129 -0.2396 -0.2012 -0.1544
    1W        W40553   6.933  18.969   7.192 -0.2493  0.0461  0.0992
    1W        W40554   1.421  25.622   0.456 -0.2369 -0.0642  0.3271
    1W        W40555   6.020   0.326   1.328  0.0450 -0.2243  0.0766
    1W        W40556  13.031  13.733   0.983 -0.0704  0.0966  0.0772
    1W        W40557  22.100  11.665   9.035  0.1447 -0.0387  0.0226
    1W        W40558   5.488   6.115   0.118 -0.1126 -0.0120 -0.1477
    1W        W40559   6.959   4.039   0.963  0.0821  0.1596 -0.2514
    1W        W40560  27.117  27.782   2.980 -0.1404  0.2119 -0.0743
    1W        W40561  11.157  25.893   2.724  0.0067  0.1569  0.0061
    1W        W40562  21.119  13.697   0.131 -0.2006  0.0634  0.0183
    1W        W40563   7.867  18.772   6.903  0.0909 -0.0825 -0.3530
    1W        W40564  10.156   9.003   2.591  0.0687  0.1717 -0.0510
    1W        W40565  23.211   4.625   1.450  0.0321  0.2523 -0.2657
    1W        W40566   0.228   6.985   6.873 -0.1417  0.0794 -0.3688
    1W        W40567  23.542  18.425   7.859 -0.5464 -0.1054 -0.2498
    1W        W40568   1.801  26.075   6.636  0.0473  0.2492 -0.0438
    1W        W40569  21.305  21.420   8.205  0.1221 -0.0714 -0.3803
    1W        W40570  12.725  22.306   0.130 -0.0606  0.0794 -0.0697
    1W        W40571  29.844   2.981   2.359  0.1865  0.2134 -0.3164
    1W        W40572  19.937  19.202   7.304  0.2472  0.1682  0.0191
    1W        W40573  27.689  11.912   0.512 -0.1947  0.1032  0.1204
    1W        W40574  28.132   3.531   5.585 -0.2191  0.1129 -0.3192
    1W        W40575  15.316   8.757   1.682  0.0197  0.0111 -0.0216
    1W        W40576  23.962  11.022   1.106 -0.2539  0.1560  0.0011
    1W        W40577  23.377   4.077   9.159  0.0568 -0.2451  0.0658
    1W        W40578  24.028  24.898   8.543 -0.4203 -0.1248 -0.0534
    1W        W40579  20.868   1.340   0.638 -0.1616 -0.0521  0.1203
    1W        W40580  20.659  16.557   7.481  0.0685 -0.4061  0.0566
    1W        W40581  21.662  11.413   9.348  0.1399  0.1174 -0.3533
    1W        W40582  19.702   7.888   1.882  0.0300 -0.2953  0.1907
    1W        W40583  30.058   8.964   9.286 -0.1753  0.1513  0.0136
    1W        W40584  14.702  10.051   9.251 -0.1774 -0.1803 -0.2142
    1W        W40585  13.684  24.999   8.928 -0.1849 -0.1148 -0.2652
    1W        W40586  27.132   0.344   3.200  0.0997  0.1060  0.1405
    1W        W40587  27.995  18.907   5.099  0.2136 -0.0959  0.0942
    1W        W40588  24.514  20.137   1.166 -0.1023  0.1123  0.3030
    1W        W40589  15.621  25.119   1.716  0.0003  0.1886 -0.2518
    1W        W40590  28.380  21.238   8.483  0.4152 -0.0113  0.1283
    1W        W40591  29.449  28.056   2.361  0.0743  0.0374  0.0488
    1W        W40592   8.480  18.775   1.777 -0.0307 -0.0497  0.0663
    1W        W40593   2.573  11.886   8.562 -0.1114  0.0702 -0.1582
    1W        W40594   3.226  19.995   6.112  0.1459  0.2124  0.0435
    1W        W40595   3.413  14.409   6.579  0.0129  0.2256  0.1439
    1W        W40596  14.527   4.214   1.878  0.5907  0.0187  0.1886
    1W        W40597   2.740  17.901   1.233  0.0754 -0.1447 -0.0981
    1W        W40598   2.827  27.270   0.314 -0.3389  0.1768 -0.3063
    1W        W40599  17.162  26.052   2.220 -0.0294  0.0132  0.3525
    1W        W40600  25.742  23.336   9.096  0.0257 -0.3121 -0.2778
    1W        W40601  24.327   6.949   0.280 -0.1270  0.0765 -0.0960
    1W        W40602  18.728  18.146   0.033 -0.1448  0.0876 -0.0547
    1W        W40603  15.044   5.970   8.419 -0.1594  0.0975  0.0197
    1W        W40604  18.049   7.849   9.191  0.0535  0.0762  0.0145
    1W        W40605  16.564   7.913   2.859 -0.2365  0.1988  0.0696
    1W        W40606  27.493  15.694   7.164 -0.1297  0.2270 -0.3401
    1W        W40607   8.458   3.282   7.109 -0.1824 -0.2399 -0.0690
    1W        W40608  29.948  23.373   2.085  0.0836 -0.3945 -0.0174
    1W        W40609  11.926  26.804   8.106  0.3317  0.2070  0.2018
    1W        W40610  18.810   0.314   7.955 -0.1157 -0.0575  0.4658
    1W        W40611   1.862   3.188   7.763 -0.2057  0.0424  0.0280
    1W        W40612  16.048  29.092   6.769  0.0056 -0.3493  0.0874
    1W        W40613   3.477  25.854   7.676  0.1857  0.1194  0.1114
    1W        W40614   5.254  10.837   8.602  0.2822 -0.2487  0.1345
    1W        W40615  22.062  29.563   1.589 -0.1997 -0.0214 -0.1316
    1W        W40616  11.382  28.771   2.383 -0.1641 -0.0322  0.1371
    1W        W40617   1.461  11.044   6.277  0.1429  0.2512  0.3038
    1W        W40618   6.982   6.930   1.012 -0.3026 -0.1004 -0.0894
    1W        W40619  15.071  10.794   9.223  0.1504 -0.1013  0.3036
    1W        W40620   2.498   6.958   9.208  0.1183  0.1178  0.1331
    1W        W40621  22.883   2.104   6.696 -0.1427 -0.2217  0.0503
    1W        W40622  18.198  17.333   6.987 -0.0771  0.0338  0.1557
    1W        W40623  13.558  27.964   3.257  0.1886 -0.1358  0.1660
    1W        W40624   5.896  27.429   7.458 -0.0870  0.0418  0.0314
    1W        W40625   5.009   1.926   3.811  0.0459  0.3998  0.0420
    1W        W40626  14.206  11.830   8.253  0.3832  0.1089  0.2676
    1W        W40627  10.715  22.524   6.694  0.4411  0.0263 -0.0752
    1W        W40628  17.638  14.751   0.383  0.0267 -0.1460 -0.1919
    1W        W40629   1.769  20.566   9.298  0.0115  0.0721 -0.2567
    1W        W40630   1.666  30.019   7.919 -0.1683 -0.0113  0.1744
    1W        W40631  13.695  25.851   0.228 -0.2125  0.1804  0.0167
    1W        W40632  19.291   0.783   2.147  0.1500 -0.1436  0.3573
    1W        W40633  20.734  21.346   0.934  0.0827 -0.2417 -0.1758
    1W        W40634  25.307  27.319   6.512 -0.3151  0.3402  0.1826
    1W        W40635  12.202  30.141   9.281 -0.1369 -0.2829  0.1586
    1W        W40636   0.521  19.591   6.312  0.0284 -0.0064 -0.0230
    1W        W40637  27.749  12.513   9.026  0.1633  0.0285 -0.1301
    1W        W40638   9.671  23.939   5.796  0.0481 -0.0746  0.0425
    1W        W40639   0.659   5.445   2.011 -0.1451  0.0591 -0.2122
    1W        W40640   6.336   2.688   8.599 -0.4392  0.0519  0.1778
    1W        W40641  16.090   1.871   1.572 -0.1501 -0.4041 -0.1438
    1W        W40642  20.802   4.985   3.183  0.2474 -0.0427  0.2060
    1W        W40643  22.483  11.849   1.518 -0.0053 -0.1770 -0.0716
    1W        W40644  20.664   4.537   7.375 -0.1862  0.1022 -0.1005
    1W        W40645   9.714  22.414   1.272  0.0982  0.2063 -0.1940
    1W        W40646  27.278  18.895   8.163 -0.1584  0.1935 -0.3116
    1W        W40647  15.723  17.349   1.747  0.0587  0.1566 -0.3338
    1W        W40648  22.290  13.920   0.654  0.2569  0.0188 -0.2912
    1W        W40649  22.494  26.182   0.871 -0.1945  0.0993  0.1857
    1W        W40650  21.353  15.031   2.502  0.0997 -0.0594  0.0711
    1W        W40651  10.094   8.940   2.023 -0.1083  0.1330 -0.0476
    1W        W40652   2.361  24.004   1.187  0.0033 -0.0912 -0.1380
    1W        W40653  29.072   0.060   8.111 -0.3204 -0.0659  0.0834
    1W        W40654  10.231  13.722   8.756 -0.0517 -0.0640  0.0902
    1W        W40655  15.743  10.355   9.268  0.1106  0.1018 -0.4104
    1W        W40656   2.798  27.000   7.839 -0.2064  0.0225 -0.1566
    1W        W40657  25.714  28.205   7.336  0.0044 -0.1150 -0.0523
    1W        W40658  23.107  20.618   9.058  0.0422 -0.3016 -0.1637
    1W        W40659  27.285   9.916   9.357  0.0754 -0.1291  0.0531
    1W        W40660  21.452   3.231   8.032 -0.0440  0.2610 -0.0362
    1W        W40661  17.064  19.922   8.607 -0.2995 -0.0628 -0.2286
    1W        W40662   7.306  10.048   3.195 -0.3021  0.1875 -0.0260
    1W        W40663  17.626  25.094   0.407  0.2880 -0.2440 -0.1317
    1W        W40664  11.086  20.152   7.412  0.1460 -0.3000  0.1225
    1W        W40665  28.133   2.369   8.337 -0.0948  0.4366  0.2313
    1W        W40666   1.869  23.610   8.824 -0.2318  0.0918 -0.3845
    1W        W40667   7.400   9.223   2.288 -0.2518 -0.0491 -0.1523
    1W        W40668   9.220   7.475   8.317 -0.1779  0.4690 -0.2276
    1W        W40669  12.035  18.407   0.040 -0.1657  0.0706 -0.1076
    1W        W40670   4.638   1.148   0.544 -0.3420  0.1832 -0.2216
    1W        W40671   4.513  27.920   6.949 -0.1221 -0.0338  0.4833
    1W        W40672  28.005  19.471   0.970  0.0346  0.1587 -0.1998
    1W        W40673  28.878  27.181   0.437 -0.1187  0.1052  0.3433
    1W        W40674  15.204  26.749   1.649 -0.1873  0.1875  0.0898
    1W        W40675   5.900  23.410   5.980 -0.4387 -0.0143  0.0041
    1W        W40676  29.440  13.383   6.273 -0.0755  0.0882  0.0259
    1W        W40677   4.718  16.040   6.542  0.0249 -0.0522  0.0603
    1W        W40678  14.843  21.371   1.648  0.0785  0.0187  0.2533
    1W        W40679  25.205   5.727   8.775  0.2081  0.1089 -0.4050
    1W        W40680   4.874   8.394   1.369  0.0123 -0.0316  0.1767
    1W        W40681  10.034   4.938   2.047 -0.0294 -0.1172  0.0383
    1W        W40682   3.376  10.238   0.694 -0.0456  0.0000 -0.1028
    1W        W40683   7.855  11.977   3.157  0.3038 -0.0566  0.0276
    1W        W40684  15.194  26.917   0.115  0.0783  0.3619 -0.1041
    1W        W40685   0.808  15.050   6.540 -0.2129  0.1784  0.1784
    1W        W40686  12.810  25.193   8.419 -0.0905  0.1994  0.0071
    1W        W40687  12.428  17.100   7.167 -0.0806 -0.1586  0.0433
    1W        W40688  10.828  22.156   2.676 -0.1757  0.2528  0.0586
    1W        W40689  27.274   8.163   0.374  0.1872 -0.3183 -0.0071
    1W        W40690  17.067   0.132   3.949 -0.1609  0.0548  0.0107
    1W        W40691  28.651  17.784   7.048 -0.0989 -0.1394 -0.1320
    1W        W40692  28.037  18.355   8.386 -0.1526  0.0135 -0.0892
    1W        W40693   1.335  24.116   0.134  0.2286 -0.1494  0.1738
    1W        W40694  18.086   8.752   7.275  0.0401 -0.1697 -0.4057
    1W        W40695  26.603   0.135   0.111  0.1023 -0.1240  0.0279
    1W        W40696  17.494   0.210   8.816 -0.0248  0.1256  0.1468
    1W        W40697  22.817  27.779   0.430 -0.0686 -0.0319  0.0220
    1W        W40698   8.124  22.315   2.322  0.2979 -0.0321 -0.0660
    1W        W40699  26.021  25.590   8.045 -0.0714  0.1335 -0.1073
    1W        W40700  20.050   4.875   8.865 -0.2304  0.2418 -0.0187
    1W        W40701  12.305   6.627   1.242  0.1806 -0.1680 -0.0617
    1W        W40702  11.751   8.991   8.344 -0.0066  0.2107  0.4575
    1W        W40703  28.270  17.347   6.298  0.0567 -0.0424 -0.2344
    1W        W40704   0.444   6.693   2.129 -0.0392 -0.0507  0.0353
    1W        W40705  13.327   9.918   7.461  0.0682 -0.4853  0.1355
    1W        W40706   7.272   1.726   8.304  0.2673 -0.2378  0.2903
    1W        W40707  23.024  16.848   0.812  0.1138 -0.1881 -0.1254
    1W        W40708  27.292   7.966   7.924 -0.0983 -0.3523  0.2174
    1W        W40709   5.917  29.242   8.940  0.2042  0.1826  0.0059
    1W        W40710  22.197   0.494   6.946 -0.1725 -0.1296  0.0044
    1W        W40711  16.476  28.874   0.274 -0.0237 -0.3383  0.1487
    1W        W40712  22.156  28.244   3.253  0.0438 -0.2689  0.0755
    1W        W40713  27.478   9.142   6.971 -0.0546  0.0869 -0.2207
    1W        W40714  23.816  28.315   6.398  0.0775 -0.0668 -0.0824
    1W        W40715  25.954   2.969   9.085  0.2471 -0.1705  0.1524
    1W        W40716   2.065   8.622   6.528 -0.1851 -0.1906 -0.0681
    1W        W40717  13.553  20.675   1.822 -0.1886  0.3453 -0.1299
    1W        W40718   5.337   4.391   1.784  0.0968  0.1076  0.1200
    1W        W40719   3.288  29.913   7.006  0.1935 -0.2994  0.1013
    1W        W40720  21.266  29.147   8.811 -0.0212  0.0409  0.1856
    1W        W40721  11.259   5.968   7.556 -0.2090 -0.0551  0.1247
    1W        W40722  18.576  21.590   1.794  0.1371 -0.0387 -0.1403
    1W        W40723  12.667  10.214   8.586 -0.3927  0.0644  0.3356
    1W        W40724  20.509  28.376   7.893 -0.0144  0.2259 -0.0384
    1W        W40725   0.461  24.674   7.411 -0.1505 -0.0707 -0.0617
    1W        W40726  25.863  28.207   3.159 -0.5946 -0.0071 -0.0623
    1W        W40727  13.388  15.529   8.492 -0.1912  0.3081 -0.2097
    1W        W40728  21.256  20.037   1.147 -0.1488 -0.1124 -0.0831
    1W        W40729  26.805   4.592   8.999  0.1861 -0.1380 -0.0545
    1W        W40730   5.647  27.680   6.537  0.0753 -0.1921 -0.3800
    1W        W40731   2.561   5.101   0.590  0.1241 -0.0811  0.0687
    1W        W40732   8.111  28.976   3.397 -0.0379  0.2897 -0.0326
    1W        W40733  14.020  13.318   7.081 -0.0275 -0.0963  0.3181
    1W        W40734  17.053   6.647   7.074  0.0086  0.1553 -0.2270
    1W        W40735  11.649   8.437   1.978 -0.2891  0.0522 -0.1010
    1W        W40736  19.449  13.709   1.270 -0.0645 -0.0517 -0.1740
    1W        W40737  17.127   5.666   8.036  0.0387 -0.5458 -0.1509
    1W        W40738   1.831  11.127   2.693  0.0561  0.1643 -0.1032
    1W        W40739  21.516  24.581   1.833 -0.0108 -0.0797  0.0653
    1W        W40740  12.244  11.211   1.093 -0.0825  0.0679 -0.0428
    1W        W40741  12.464  16.354   9.166 -0.0506  0.2654 -0.3245
    1W        W40742  14.757  18.492   1.665  0.0853 -0.1818  0.2762
    1W        W40743   2.296  11.939   1.810 -0.0956 -0.2347 -0.2490
    1W        W40744   5.285  21.310   7.968  0.1411  0.1903  0.2194
    1W        W40745  19.054  25.468   7.875 -0.0800 -0.0075  0.0844
    1W        W40746  19.448   9.210   7.215 -0.0831  0.2690  0.0944
    1W        W40747  14.782   3.759   8.880 -0.0268  0.1205  0.1284
    1W        W40748   0.593  10.946   6.379 -0.2392 -0.2299 -0.1842
    1W        W40749  25.744  24.068   0.370  0.2657 -0.2195  0.1714
    1W        W40750  14.469  23.417   7.508  0.0031  0.0354  0.1007
    1W        W40751   2.672  27.204   8.331 -0.1049  0.1477  0.0319
    1W        W40752   4.981  12.430   7.600 -0.0977 -0.0379 -0.0748
    1W        W40753   4.914  13.230   8.977  0.1755 -0.3100 -0.0556
    1W        W40754  24.490  28.749   1.290 -0.0330 -0.0697 -0.0069
    1W        W40755   2.746  14.892   6.217 -0.0733  0.1435 -0.0977
    1W        W40756  12.023  16.370   0.241  0.2347  0.0150 -0.1884
    1W        W40757  18.003   4.149   7.298  0.2119  0.1582  0.1037
    1W        W40758  29.392  24.427   5.703 -0.2635 -0.0364 -0.1272
    1W        W40759  12.531  12.951   8.951  0.0344  0.1730  0.0182
    1W        W40760  20.595  22.966   2.219  0.0802  0.1563 -0.0338
    1W        W40761  12.323   5.257   7.232  0.2995  0.2377 -0.1105
    1W        W40762  25.280  21.071   7.026 -0.0278  0.1184  0.3131
    1W        W40763  23.643  20.930   6.029  0.0740 -0.0795  0.1964
    1W        W40764   0.839   8.596   0.409  0.0818 -0.2423 -0.0746
    1W        W40765  18.098   0.547   0.155 -0.0037  0.0907 -0.0710
    1W        W40766  12.333  26.520   0.621  0.1953 -0.2045 -0.4782
    1W        W40767   0.644  10.385   0.667 -0.0119  0.1010 -0.4047
    1W        W40768  12.066   1.426   3.378  0.1216  0.1225  0.0535
    1W        W40769  18.619  21.155   0.775 -0.2036 -0.0293  0.1060
    1W        W40770  22.225   3.238   0.793  0.1726 -0.0786  0.2483
    1W        W40771  19.966   3.235   7.500 -0.2208  0.1857 -0.0714
    1W        W40772   4.591   6.552   1.814 -0.0673  0.2469 -0.1323
    1W        W40773  21.215  29.156   1.092 -0.2062 -0.2828 -0.1036
    1W        W40774   6.537  22.049   7.657 -0.2196 -0.1582  0.1594
    1W        W40775  25.183   4.542   0.634 -0.1872  0.2230  0.1415
    1W        W40776   8.398  10.956   7.426 -0.0534  0.0592 -0.2027
    1W        W40777  17.343  27.019   8.044  0.1061  0.0039  0.0607
    1W        W40778  28.091  20.442   1.258 -0.1753  0.2360 -0.2060
    1W        W40779   4.453  16.513   0.652 -0.0777  0.4356 -0.1570
    1W        W40780  29.382  23.632   0.094 -0.0333 -0.1208 -0.1224
    1W        W40781  16.840  19.545   1.014  0.1467 -0.2536 -0.2711
    1W        W40782  25.017  15.521   7.218 -0.2056  0.0457  0.2384
    1W        W40783  15.630  21.369   8.650  0.1912  0.1531 -0.3887
    1W        W40784   6.220  17.053   8.996 -0.1166 -0.1248 -0.1013
    1W        W40785   1.101  17.194   7.474 -0.5046 -0.0976 -0.1756
    1W        W40786  12.834  21.673   8.303  0.4410 -0.4333  0.1850
    1W        W40787  18.873  13.880   9.388 -0.4272  0.0996  0.0331
    1W        W40788  10.073   8.091   8.584  0.0229 -0.0830 -0.0578
    1W        W40789  17.912   0.469   7.955 -0.1229  0.0206  0.1099
    1W        W40790  10.784   3.027   8.220 -0.1699 -0.0431 -0.2681
    1W        W40791   1.095  21.497   2.121 -0.0667 -0.0672  0.1663
    1W        W40792  22.814  21.940   9.332 -0.2313  0.0721  0.1748
    1W        W40793   3.039  12.897   2.040  0.0501 -0.0420  0.1677
    1W        W40794  24.714  13.273   6.177 -0.2198 -0.0986  0.1513
    1W        W40795  28.144  18.769   7.840 -0.0378  0.0802  0.0898
    1W        W40796   1.092   8.232   0.752  0.1321 -0.0429  0.0582
    1W        W40797  13.195  21.696   1.913  0.2542  0.0334  0.0144
    1W        W40798  19.475  25.641   1.832 -0.1705 -0.1587 -0.0259
    1W        W40799   9.184  16.842   8.048 -0.2299 -0.2388  0.0844
    1W        W40800   1.829  16.838   7.842 -0.1413  0.3999  0.3988
    1W        W40801  20.987  19.545   9.070  0.2512  0.1455  0.0221
    1W        W40802   2.221  11.628   6.737  0.1398  0.0609 -0.2580
    1W        W40803  22.175  19.209   7.722 -0.0378 -0.1061 -0.2088
    1W        W40804  12.828  11.664   8.232 -0.0163  0.0068  0.2558
    1W        W40805  13.717   1.647   2.709  0.3475  0.1988 -0.0783
    1W        W40806   6.967  27.811   3.338 -0.0082 -0.2514 -0.3020
    1W        W40807  19.537   5.539   8.276  0.0859 -0.0828  0.0166
    1W        W40808   1.978   5.234   9.138 -0.1867  0.2308  0.1811
    1W        W40809  23.098  17.891   8.178 -0.0289  0.2412 -0.3285
    1W        W40810  18.267   1.424   9.042  0.0784 -0.1920 -0.1944
    1W        W40811   4.031  25.322   6.281 -0.2167 -0.0503 -0.3596
    1W        W40812  23.829  17.829   0.653  0.1579  0.1594  0.1770
    1W        W40813  12.057   9.375   0.922 -0.1264  0.3069  0.1169
    1W        W40814  28.344   4.060   6.822  0.0130  0.2210 -0.1062
    1W        W40815  19.064  12.346   9.187 -0.0710  0.2803  0.0262
    1W        W40816   9.578   4.246   2.796 -0.2178  0.0680 -0.0960
    1W        W40817  10.771  24.091   9.166  0.2494  0.2457 -0.2188
    1W        W40818  29.511  10.132   0.412 -0.0436 -0.0904  0.1546
    1W        W40819  15.945   7.157   8.347 -0.2461 -0.0430  0.4390
    1W        W40820   6.027  26.455   6.880 -0.0785  0.3750  0.1083
    1W        W40821  16.904  19.527   7.273  0.0687  0.2097  0.0755
    1W        W40822   7.807   2.838   7.054  0.0999  0.2451  0.0021
    1W        W40823   6.069  29.273   7.578 -0.1610 -0.0102  0.2345
    1W        W40824   4.035  10.364   3.202  0.1440  0.0277 -0.0402
    1W        W40825   4.234  15.242   8.738 -0.0284  0.1234 -0.1563
    1W        W40826  14.176  29.479   8.051  0.0682  0.2639  0.0402
    1W        W40827  26.417  19.544   2.057  0.1424  0.1193 -0.1382
    1W        W40828   2.018  15.376   7.543 -0.0516 -0.2161  0.0673
    1W        W40829   2.809  19.104   5.231  0.0357  0.0413  0.0231
    1W        W40830  17.775  26.836   1.555 -0.2549 -0.0850 -0.0556
    1W        W40831  26.855   6.072   9.232  0.1102 -0.2101 -0.0746
    1W        W40832  11.227   2.249   8.392 -0.1415 -0.0763  0.1339
    1W        W40833  14.477  16.233   0.391  0.1671  0.3816 -0.2375
    1W        W40834  19.991  12.209   0.668 -0.0627  0.3002  0.1034
    1W        W40835  14.448  24.871   7.358 -0.0403 -0.1027 -0.4241
    1W        W40836   3.986   6.106   7.546 -0.0128 -0.4483 -0.0105
    1W        W40837  24.136   4.403   8.177 -0.2030 -0.4767 -0.5676
    1W        W40838   0.170  10.961   6.099 -0.2422 -0.1259 -0.1796
    1W        W40839  24.043   7.929   9.013 -0.4962 -0.1797 -0.0083
    1W        W40840   5.391  16.852   6.327 -0.1151  0.0799 -0.0719
    1W        W40841  14.642  13.467   1.841 -0.0690  0.1130 -0.1390
    1W        W40842   2.329   2.264   7.019 -0.1255  0.0074  0.0316
    1W        W40843  25.232  27.458   2.333  0.2889  0.0043 -0.1602
    1W        W40844   2.310  28.995   1.952  0.2562  0.1950 -0.1149
    1W        W40845  13.791   6.052   2.603  0.0039 -0.0370  0.2253
    1W        W40846  18.179  14.825   2.616  0.0830 -0.1606 -0.0112
    1W        W40847   9.424  26.517   8.162  0.4989 -0.0892 -0.2912
    1W        W40848  21.058  17.105   0.029 -0.3038  0.1844 -0.0084
    1W        W40849  28.592  28.069   7.741 -0.0150 -0.0725  0.0043
    1W        W40850  11.759   7.144   4.255  0.2156 -0.0943  0.1223
    1W        W40851   6.430  23.129   1.702 -0.1743  0.2217  0.1694
    1W        W40852  26.151  30.039   7.584  0.0209  0.1563  0.0675
    1W        W40853  14.330   9.754   0.008  0.2693  0.1397  0.1179
    1W        W40854  16.282  22.121   8.370  0.2272  0.0151 -0.0026
    1W        W40855   6.961  24.932   2.530  0.6666  0.0963 -0.0780
    1W        W40856   1.516  14.235   9.154 -0.0103 -0.3201  0.5202
    1W        W40857  13.926  21.899   0.437 -0.2163 -0.0671 -0.2110
    1W        W40858  27.651  16.790   1.476  0.2028 -0.1681 -0.1105
    1W        W40859  27.094   0.412   1.412 -0.0385 -0.1050  0.0096
    1W        W40860  28.545  25.965   7.947  0.1951 -0.1671  0.0861
    1W        W40861   8.548  21.708   1.132  0.2644  0.2288  0.3523
    1W        W40862   2.317  17.618   8.359 -0.1131 -0.0963  0.0725
    1W        W40863   3.548  18.794   0.746 -0.0463  0.2569 -0.2061
    1W        W40864   8.672   1.502   2.637  0.1139 -0.1788  0.0159
    1W        W40865  23.055  20.155   9.334 -0.4928  0.0505 -0.2645
    1W        W40866  10.671  27.845   8.135 -0.0111 -0.3410  0.0077
    1W        W40867  29.195   7.270   9.384 -0.0363 -0.0875  0.1309
    1W        W40868  28.727   5.218   1.634 -0.0097  0.0587 -0.1169
    1W        W40869  29.860  13.502   5.820 -0.3381 -0.1426 -0.0835
    1W        W40870  25.138  29.280   8.678 -0.4641 -0.0062 -0.0239
    1W        W40871  22.884  30.015   8.246  0.0049 -0.0061  0.0662
    1W        W40872   1.899  17.921   1.092  0.0356 -0.2764  0.0496
    1W        W40873   7.581  28.728   7.648 -0.0615  0.1473 -0.1456
    1W        W40874   4.753  14.523   7.507  0.3438  0.1508  0.0061
    1W        W40875   1.419   4.188   3.550 -0.1476 -0.3857 -0.1214
    1W        W40876  13.434  27.159   8.413 -0.1995 -0.1062 -0.2015
    1W        W40877   7.784  16.595   9.327 -0.1961 -0.2868 -0.1019
    1W        W40878  28.455  15.287   8.264 -0.0318 -0.1372  0.0566
    1W        W40879   1.168  27.823   6.550  0.1069  0.3790  0.0988
    1W        W40880  20.188  23.273   2.393 -0.0085 -0.3212  0.2974
    1W        W40881  13.440   4.291   3.515 -0.0131 -0.2100  0.1200
    1W        W40882   6.863  24.049   8.557 -0.1411  0.0628  0.2318
    1W        W40883  27.814   4.742   0.320 -0.0468  0.1995 -0.0253
    1W        W40884  14.038  26.340   0.216 -0.2640 -0.1853 -0.1474
    1W        W40885  29.504   9.201   1.898 -0.0321  0.0201  0.1359
    1W        W40886  24.457  12.478   8.084  0.0983 -0.0082  0.1737
    1W        W40887  21.726  28.333   7.523 -0.0315 -0.0055  0.0247
    1W        W40888   4.392  20.515   7.485 -0.0917  0.1938  0.1983
    1W        W40889  18.948  19.929   7.431 -0.2128  0.0305  0.0680
    1W        W40890   8.652  22.425   0.240 -0.0651  0.1562 -0.0763
    1W        W40891   6.417  16.923   6.407 -0.1210 -0.2306  0.3733
    1W        W40892  17.158   2.305   3.925  0.0418  0.1045 -0.2209
    1W        W40893  14.853  21.525   7.045 -0.0457  0.0239 -0.0776
    1W        W40894   0.667   9.048   9.186 -0.0530 -0.0300 -0.1604
    1W        W40895   7.990   2.338   1.341 -0.3336  0.0996 -0.2625
    1W        W40896  10.728   5.049   6.905  0.2805 -0.1790  0.1964
    1W        W40897  25.081  18.615   8.664  0.2459 -0.0093 -0.2038
    1W        W40898   0.575   3.965   3.061  0.2055 -0.0206  0.2023
    1W        W40899  29.345   8.575   1.817 -0.4803 -0.1764 -0.0825
    1W        W40900  15.212  22.578   0.130 -0.2540  0.0709 -0.1327
    1W        W40901   6.067  28.798   8.199 -0.2965  0.0405 -0.2180
    1W        W40902  24.661   4.578   1.474 -0.0938 -0.0856 -0.1371
    1W        W40903   5.585   7.011   2.879  0.0600 -0.2452  0.0790
    1W        W40904   3.744  13.505   6.861  0.2684 -0.0338  0.0484
    1W        W40905  22.378   6.723   7.863  0.0785 -0.0260 -0.0065
    1W        W40906   2.336  11.293   8.366 -0.0046  0.1857  0.0569
    1W        W40907  10.080  13.439   1.440 -0.3107  0.1380  0.0714
    1W        W40908  14.183  17.374   0.008  0.0828 -0.3266 -0.2011
    1W        W40909  12.880  15.304   7.329 -0.0088 -0.2136 -0.1163
    1W        W40910  23.472   4.128   3.273 -0.0406 -0.0292 -0.2156
    1W        W40911  29.146  28.043   2.754 -0.1214  0.0929  0.0700
    1W        W40912  28.487  14.530   5.800 -0.0473 -0.0484 -0.1420
    1W        W40913  13.630  14.362   9.012 -0.1232 -0.0449  0.0377
    1W        W40914  15.695   2.228   3.237 -0.0704 -0.1531 -0.1611
    1W        W40915  25.277  28.165   6.985 -0.0059 -0.2630 -0.0320
    1W        W40916  14.188  28.231   7.242 -0.1397 -0.1666 -0.0789
    1W        W40917   6.362   0.169   1.761  0.0716 -0.1776  0.2039
    1W        W40918  14.094  26.170   6.940  0.3633  0.0239 -0.3670
    1W        W40919  13.460  10.369   0.548  0.2209  0.0113 -0.2116
    1W        W40920  27.669  20.554   7.695  0.1452  0.0927  0.1957
    1W        W40921  12.604   6.951   3.130  0.3593  0.1067  0.1941
    1W        W40922   5.450   8.133   1.961 -0.0456  0.1929  0.3443
    1W        W40923   6.427  12.812   3.082  0.0745 -0.0022  0.2305
    1W        W40924  20.993  11.142   0.549  0.2701  0.1817  0.0071
    1W        W40925   4.981  15.632   6.746 -0.1477  0.1211 -0.1186
    1W        W40926   9.297  22.474   8.076  0.1551 -0.0866  0.1718
    1W        W40927   3.144  21.846   0.309  0.0934 -0.1619  0.3287
    1W        W40928  11.704   6.755   8.768  0.2361 -0.1547  0.1162
    1W        W40929   7.515  21.689   8.811 -0.0984  0.0319 -0.2529
    1W        W40930   5.686  23.740   5.331 -0.1326 -0.0314  0.0782
    1W        W40931   7.817   0.413   0.311  0.0657  0.1218 -0.0325
    1W        W40932  26.133   5.426   8.132  0.1121 -0.2470 -0.0101
    1W        W40933   6.957   0.330   7.830  0.3491  0.0912  0.0066
    1W        W40934  15.096  15.901   8.652 -0.0607 -0.0956 -0.3501
    1W        W40935  10.658  12.165   9.170 -0.1576 -0.1218 -0.3321
    1W        W40936  28.241  22.473   0.449  0.1124  0.0818 -0.0606
    1W        W40937  17.202  25.814   7.943 -0.0322 -0.0085  0.0481
    1W        W40938  26.982  17.397   1.762 -0.1159 -0.2111  0.4571
    1W        W40939  17.474   5.706   8.456  0.1806 -0.2568  0.0751
    1W        W40940  28.710   1.448   1.487 -0.2977  0.0536 -0.3958
    1W        W40941  21.104  29.675   8.997  0.2296 -0.1006  0.3517
    1W        W40942  25.894  23.168   7.679 -0.3370  0.0950  0.0448
    1W        W40943   3.264  10.346   2.186 -0.0212 -0.1584 -0.2871
    1W        W40944  17.201  15.154   1.382 -0.0254  0.2477  0.2162
    1W        W40945  26.319  30.077   1.616  0.2734  0.2053  0.0780
    1W        W40946  19.858  15.588   8.534 -0.3207 -0.4191  0.1372
    1W        W40947  22.509  18.065   7.608 -0.1220 -0.0069 -0.1909
    1W        W40948  24.580  18.512   0.593  0.0363 -0.2090 -0.1599
    1W        W40949  14.183   9.771   8.570 -0.1018  0.0955 -0.3685
    1W        W40950   5.389  10.493   8.046 -0.1351  0.2788  0.0340
    1W        W40951   6.997  10.504   6.812 -0.1457  0.2708 -0.1579
    1W        W40952   4.486   7.650   0.275  0.0610 -0.2380 -0.0213
    1W        W40953  15.871   0.849   2.853 -0.0760  0.1091  0.0398
    1W        W40954  14.670  12.098   0.047 -0.0750 -0.2344 -0.0882
    1W        W40955   9.007  29.282   8.464  0.0538  0.0752 -0.1956
    1W        W40956   4.508   6.156   9.218 -0.0627 -0.1068  0.1229
    1W        W40957  11.621  21.950   2.479  0.1272 -0.1605 -0.1482
    1W        W40958  10.696  21.872   6.155 -0.0874 -0.2125  0.0681
    1W        W40959  20.805   5.550   0.819 -0.1851  0.2259  0.0245
    1W        W40960   6.265  14.033   1.863  0.2600  0.0492 -0.2288
    1W        W40961  26.775  27.213   8.412  0.0250  0.2301  0.1233
    1W        W40962  20.556  14.847   0.093  0.0939 -0.0514  0.0201
    1W        W40963  17.956   3.377   1.387  0.0946  0.2356  0.0259
    1W        W40964  25.200  10.834   8.239  0.2958  0.3591  0.0081
    1W        W40965  27.387  23.303   1.163 -0.0937 -0.0918 -0.0588
    1W        W40966   3.885  23.817   7.345  0.2158  0.0141  0.3035
    1W        W40967   3.465  13.101   6.713  0.0467  0.4911  0.0974
    1W        W40968   4.390  23.247   8.538  0.1581 -0.1031 -0.3652
    1W        W40969  12.883  23.928   5.942  0.0183 -0.2076  0.2129
    1W        W40970  26.025  21.458   7.485 -0.1995  0.1466 -0.0830
    1W        W40971  10.290  22.846   7.050  0.0715 -0.0169 -0.0468
    1W        W40972  16.207  20.054   1.695  0.1663 -0.0094  0.1495
    1W        W40973   7.153   1.066   0.593  0.0870 -0.1157  0.0312
    1W        W40974   3.372  14.667   5.971  0.2237 -0.1297 -0.1367
    1W        W40975  15.481  13.507   0.762 -0.0558 -0.0943 -0.0776
    1W        W40976   7.703  20.276   6.887 -0.1853 -0.0929 -0.1628
    1W        W40977  24.094  23.009   1.303  0.1331  0.0532  0.1610
    1W        W40978   3.047  21.228   6.833 -0.0308  0.0186 -0.2821
    1W        W40979  27.840   2.773   9.019  0.0741 -0.3362 -0.0896
    1W        W40980  21.479  16.895   8.312 -0.3542  0.1837  0.1540
    1W        W40981   3.687  22.611   1.013  0.0948  0.2246 -0.0770
    1W        W40982  28.187   2.407   0.657 -0.1238  0.2197 -0.0706
    1W        W40983   4.036  20.340   6.734 -0.2979 -0.2503 -0.1697
    1W        W40984  13.886  13.367   1.229  0.0942 -0.1901  0.1386
    1W        W40985   6.565  26.155   7.660 -0.1058  0.5078 -0.1725
    1W        W40986  15.098  15.050   1.175  0.2670  0.0528  0.0780
    1W        W40987  24.486   0.643   1.836  0.1174  0.0953  0.2346
    1W        W40988   2.321   8.715   0.070  0.0918 -0.0418  0.0589
    1W        W40989  21.639   2.865   1.352  0.0762  0.0770  0.0294
    1W        W40990   5.230  29.539   0.970  0.3875  0.1284 -0.1153
    1W        W40991   5.681  19.866   0.546 -0.0680 -0.1280 -0.1684
    1W        W40992   0.299  19.649   0.777  0.0274 -0.2632 -0.0977
    1W        W40993  27.018  21.034   8.895 -0.1986 -0.4729 -0.0591
    1W        W40994  12.558  24.638   8.177  0.0497 -0.1277  0.3556
    1W        W40995  23.442  26.157   1.479  0.2138  0.0527 -0.3521
    1W        W40996  20.506  24.339   8.313  0.1864  0.1031 -0.0889
    1W        W40997  15.911  13.021   1.904 -0.0033  0.3321 -0.4136
    1W        W40998  19.522   2.539   0.587 -0.1024  0.1966  0.1369
    1W        W40999   6.038   3.992   1.308 -0.0868 -0.2889  0.0784
    1W        W41000  20.203  10.954   0.271  0.0754  0.3279 -0.2550
    1W        W41001  18.924  25.431   6.773  0.2091 -0.2054  0.2070
    1W        W41002  10.446  16.381   0.981  0.1308 -0.0160 -0.0089
    1W        W41003  17.507  23.311   0.101  0.0773  0.0494  0.0723
    1W        W41004   5.390  26.961   9.108 -0.1091 -0.1470 -0.2053
    1W        W41005  16.754   2.259   0.240  0.0810  0.0998 -0.1507
    1W        W41006  22.579   6.798   6.989  0.2603  0.2220 -0.0198
    1W        W41007  21.784   3.460   0.673  0.1088  0.2471 -0.1333
    1W        W41008  18.817   9.320   2.358  0.2937 -0.0373  0.1790
    1W        W41009  15.596  17.729   7.802 -0.0361 -0.0371  0.3683
    1W        W41010  30.102   5.434   0.063  0.0328 -0.2958  0.3766
    1W        W41011  18.196  29.697   1.126  0.2383  0.0099  0.0453
    1W        W41012   4.794  19.599   0.367  0.0420 -0.1048 -0.0500
    1W        W41013  15.855   6.340   8.880 -0.0812 -0.1137 -0.0622
    1W        W41014  21.364   5.007   9.198  0.1379  0.1374  0.0278
    1W        W41015  22.995  12.682   8.319 -0.1211 -0.2359 -0.2481
    1W        W41016  28.505   7.932   0.990  0.2311  0.0193 -0.1004
    1W        W41017  18.400  15.368   7.729  0.1631 -0.2460 -0.0446
    1W        W41018  27.434  18.224   7.573  0.0439  0.0727  0.0365
    1W        W41019   3.452  11.818   6.894 -0.0582 -0.0915  0.0796
    1W        W41020   9.891   9.032   1.573  0.0886 -0.0937  0.1106
    1W        W41021   5.969  12.541   7.722 -0.0966 -0.1867 -0.1223
    1W        W41022  21.950  27.422   1.790  0.0237 -0.1209 -0.0282
    1W        W41023  25.770  22.348   1.811  0.0271 -0.0921 -0.3738
    1W        W41024  10.424  12.515   2.472 -0.2974  0.4468 -0.1292
    1W        W41025  15.142   7.476   2.147 -0.3859  0.2703 -0.0823
    1W        W41026  10.128  14.640   7.901  0.3303 -0.1091 -0.1179
    1W        W41027   2.200  24.494   2.134 -0.1229  0.1341 -0.0149
    1W        W41028  19.732   1.479   7.988 -0.3941 -0.1257 -0.2334
    1W        W41029  24.077  29.497   9.300  0.0115 -0.2258  0.1264
    1W        W41030  11.771  10.292   1.042 -0.1347 -0.1427  0.5006
    1W        W41031   2.672  20.595   6.471 -0.3364  0.0699 -0.4372
    1W        W41032  27.066  30.141   7.286  0.3544  0.0016 -0.0410
    1W        W41033   7.602  24.342   8.375 -0.0799 -0.2343 -0.1699
    1W        W41034  24.690  13.438   1.419  0.1903  0.0619  0.0726
    1W        W41035  11.127  20.274   0.334  0.0114 -0.0674 -0.2047
    1W        W41036  25.937  24.926   6.483  0.2140  0.0592  0.3444
    1W        W41037  27.798  10.543   7.948  0.0320 -0.3561 -0.1094
    1W        W41038   4.334   7.297   2.726  0.2799 -0.0753  0.0271
    1W        W41039   2.106  17.449   6.014  0.0432 -0.0293  0.1864
    1W        W41040  16.567   5.600   3.057 -0.0345 -0.0037 -0.1366
    1W        W41041  24.704  25.206   1.366  0.2822 -0.1496 -0.1013
    1W        W41042   8.091   5.429   8.141  0.1581  0.0423 -0.3423
    1W        W41043  25.368  22.583   7.211  0.1268 -0.1710 -0.0514
    1W        W41044  28.620  12.104   0.959 -0.0857  0.1578  0.1699
    1W        W41045  19.185   0.576   8.145  0.1722  0.0358 -0.1559
    1W        W41046   0.562  26.852   2.506  0.0172 -0.0586  0.0276
    1W        W41047  18.463   3.980   3.562 -0.1788 -0.1020 -0.3154
    1W        W41048  26.081  15.226   7.568 -0.2963 -0.3033  0.0396
    1W        W41049   7.162   9.371   1.280 -0.2677  0.1145 -0.2791
    1W        W41050   8.943  25.831   7.563 -0.1936 -0.0893  0.2613
    1W        W41051   8.057  26.963   1.807 -0.0370  0.1413  0.1907
    1W        W41052  16.754  23.708   6.513 -0.1349  0.0446  0.1081
    1W        W41053  17.883  25.484   2.169 -0.2782 -0.3328  0.2363
    1W        W41054  15.718   0.613   3.568 -0.2970  0.2335 -0.3092
    1W        W41055  20.958  29.348   9.367 -0.2071 -0.3363 -0.0063
    1W        W41056   8.949  19.294   9.042 -0.1673 -0.2664  0.0851
    1W        W41057   8.226  27.480   7.835  0.0247 -0.0547  0.1458
    1W        W41058   7.655  24.581   0.853 -0.1594 -0.0248  0.4488
    1W        W41059  20.527  23.340   8.482 -0.2661 -0.0121  0.3151
    1W        W41060  12.382   7.800   9.093 -0.5923  0.1110  0.3325
    1W        W41061  13.040  17.210   1.715  0.1048  0.0826 -0.2062
    1W        W41062  25.849   4.887   8.883 -0.0847  0.5931 -0.0077
    1W        W41063  19.963  16.893   8.117 -0.1444  0.2036 -0.0394
    1W        W41064   0.101   2.599   0.860 -0.1612 -0.0230  0.1137
    1W        W41065  22.607  23.181   2.489 -0.0734  0.0779  0.0754
    1W        W41066  25.250  19.918   7.405  0.2278  0.0739  0.1178
    1W        W41067   7.366   5.517   0.755 -0.3737 -0.0875  0.0690
    1W        W41068  19.357   2.302   1.776 -0.1378 -0.1740 -0.0849
    1W        W41069  19.998  15.964   9.010 -0.0072 -0.0188  0.1118
    1W        W41070   3.796  26.657   6.617 -0.1100 -0.0697 -0.5230
    1W        W41071  23.845  22.128   7.031 -0.0225  0.1122 -0.0317
    1W        W41072   0.953  24.610   7.435  0.1158  0.2645 -0.1848
    1W        W41073   2.585  28.826   2.420  0.3398 -0.1046  0.0843
    1W        W41074   4.213   8.900   8.523 -0.0331 -0.1787 -0.0835
    1W        W41075   5.084  14.662   1.963  0.0794 -0.0359  0.1073
    1W        W41076  21.067  21.567   9.180 -0.0380 -0.4001 -0.1558
    1W        W41077   5.190   1.919   9.177 -0.1307  0.0508  0.2429
    1W        W41078   2.945   7.723   6.548 -0.2352  0.1375  0.2436
    1W        W41079   6.957   5.654   2.977  0.0981  0.0773 -0.0235
    1W        W41080   1.177  29.159   3.015 -0.3625  0.2311 -0.0305
    1W        W41081  27.570  22.326   7.289  0.3089 -0.2255 -0.2374
    1W        W41082   1.716   0.640   6.776 -0.0172  0.2469  0.0561
    1W        W41083   2.490  12.483   6.573 -0.0277 -0.0557  0.3315
    1W        W41084   7.147  24.171   6.597 -0.1781 -0.1040 -0.3732
    1W        W41085  27.884   8.237   8.724 -0.1652  0.0895  0.0047
    1W        W41086   1.719   4.902   6.921  0.1837 -0.4709  0.2923
    1W        W41087  15.523  21.914   7.886  0.1965 -0.0963  0.1618
    1W        W41088  26.781   4.546   2.043 -0.0226  0.2763 -0.3266
    1W        W41089   6.177   6.011   8.343 -0.0502  0.0033 -0.1693
    1W        W41090   4.647  13.695   9.253 -0.1274 -0.3030  0.2032
    1W        W41091   2.267  25.453   6.262 -0.2436 -0.1946  0.0499
    1W        W41092  10.256  10.953   8.229  0.0215  0.1805 -0.1441
    1W        W41093  17.607  27.407   9.046  0.1409  0.1895 -0.2513
    1W        W41094  28.023   6.430   2.458 -0.1048  0.0998 -0.1608
    1W        W41095  26.292  14.119   5.736 -0.2288 -0.0893 -0.1175
    1W        W41096  14.048  11.058   9.354 -0.1123  0.1036  0.1193
    1W        W41097  12.703  27.924   8.247 -0.3565  0.2671  0.0303
    1W        W41098  27.570   5.152   0.161  0.1477 -0.0866  0.1629
    1W        W41099  19.092  25.957   7.840  0.2921  0.1854 -0.1617
    1W        W41100  16.563  11.992   9.199 -0.0420 -0.3414 -0.0797
    1W        W41101  21.742   4.653   8.936 -0.0771 -0.1843 -0.0972
    1W        W41102  13.780  11.754   7.953 -0.4733 -0.0716  0.2218
    1W        W41103  19.338   2.465   8.591 -0.0166 -0.3250  0.0541
    1W        W41104  22.088  15.273   9.021 -0.2269 -0.1901 -0.1918
    1W        W41105  25.801  10.246   0.033 -0.2798  0.1743  0.2735
    1W        W41106  22.424   6.005   2.497  0.0138 -0.0453 -0.1035
    1W        W41107  10.200   6.276   0.264 -0.0735 -0.0982  0.4111
    1W        W41108   5.868  23.207   1.292  0.1880  0.1538  0.0771
    1W        W41109  14.616  23.842   7.279  0.0723  0.3972  0.0704
    1W        W41110   6.240  13.348   6.896 -0.1323  0.0134 -0.1941
    1W        W41111  21.644  12.903   6.456  0.3273  0.0481 -0.2610
    1W        W41112  25.936  26.956   8.460 -0.2216  0.3026  0.1546
    1W        W41113  17.939  17.798   6.609 -0.0304  0.2272  0.3256
    1W        W41114  26.329  15.383   0.422  0.1115 -0.1890 -0.0138
    1W        W41115   4.174  20.087   8.190  0.1127 -0.0221 -0.0130
    1W        W41116   6.876   7.541   2.123 -0.1019 -0.4246 -0.4222
    1W        W41117   3.649  24.315   0.448 -0.0544 -0.1885  0.0297
    1W        W41118  28.479  23.198   6.428  0.0063  0.0531  0.3972
    1W        W41119  23.803  18.144   9.222  0.1251 -0.2496  0.0652
    1W        W41120   9.310  20.476   2.000 -0.0234 -0.0968 -0.0205
    1W        W41121   9.327  26.451   2.905  0.1016 -0.0590  0.1099
    1W        W41122   0.488  29.788   1.745 -0.1918  0.0020 -0.0683
    1W        W41123   3.310  17.488   9.212  0.2432  0.1140  0.0931
    1W        W41124   6.710   2.676   1.908  0.1034 -0.0359  0.1414
    1W        W41125  24.473  23.465   2.507  0.1087  0.0046 -0.2721
    1W        W41126  29.338   5.290   1.045 -0.0882  0.3450  0.0265
    1W        W41127  15.479   5.388   8.878 -0.3561  0.0549 -0.3284
    1W        W41128  16.082  14.853   7.382  0.2137 -0.2306 -0.2491
    1W        W41129  26.482  16.064   7.011 -0.0330  0.5728  0.0856
    1W        W41130   5.413  19.063   0.879 -0.0216 -0.5660 -0.1464
    1W        W41131  25.232  27.739   7.997  0.2075  0.0968 -0.2467
    1W        W41132  27.151   9.834   7.051 -0.0077  0.0391  0.3334
    1W        W41133   1.062  11.637   9.129 -0.0073  0.0895 -0.0726
    1W        W41134   6.300  21.905   8.605 -0.2235 -0.0697 -0.0293
    1W        W41135   6.316  19.137   6.840 -0.3576  0.0464  0.1963
    1W        W41136   8.316  24.289   0.154  0.3323 -0.1999  0.2429
    1W        W41137  15.197  17.849   8.033 -0.0418 -0.0788  0.4706
    1W        W41138   6.422   0.090   1.145 -0.0665  0.2430 -0.0199
    1W        W41139  19.156   8.530   0.444 -0.2183  0.0610  0.0619
    1W        W41140  20.468   0.638   8.666  0.0017  0.0775 -0.1249
    1W        W41141  17.890   2.602   8.011  0.1126 -0.1216  0.3494
    1W        W41142  11.507   6.691   2.444  0.0198 -0.0565  0.0526
    1W        W41143   5.245  11.657   0.344 -0.2949  0.1361 -0.0458
    1W        W41144  11.042  28.094   3.491  0.2819 -0.2525  0.0518
    1W        W41145   2.672  19.436   5.546 -0.1552  0.1292 -0.2563
    1W        W41146   0.741  24.059   1.658  0.0566 -0.2996 -0.0539
    1W        W41147   9.220   9.472   0.190 -0.2800  0.0686  0.0426
    1W        W41148   1.116  19.512   0.532  0.0357  0.3959  0.2306
    1W        W41149   5.284  12.900   7.600  0.2772  0.2473  0.2788
    1W        W41150  26.977  11.525   9.213 -0.3498 -0.1846  0.1129
    1W        W41151  24.750   1.602   2.531 -0.2858 -0.1647 -0.1245
    1W        W41152  11.841  15.791   8.522  0.0808  0.0471  0.1630
    1W        W41153   8.844   4.564   2.882  0.0541 -0.0383 -0.0219
    1W        W41154   2.241   1.516   0.357 -0.1743 -0.0420  0.0206
    1W        W41155  10.384   2.996   0.953  0.1459  0.2183 -0.0873
    1W        W41156  23.719  18.320   0.574 -0.1543 -0.0150 -0.2347
    1W        W41157  20.546  21.648   7.119  0.0167 -0.2929 -0.2410
    1W        W41158   7.704  11.090   1.094  0.0974 -0.2065  0.1190
    1W        W41159   1.196   4.474   2.668 -0.0986 -0.2146 -0.0354
    1W        W41160  29.707  16.160   6.168 -0.0661 -0.1560 -0.2666
    1W        W41161  27.700  18.161   4.839 -0.3484  0.1736 -0.3758
    1W        W41162  14.423  22.894   7.300 -0.3705 -0.0506  0.0779
    1W        W41163  19.756   9.283   1.561 -0.0353 -0.0505  0.0229
    1W        W41164  13.476  13.742   0.787  0.3702 -0.3144 -0.0533
    1W        W41165   6.782  28.077   9.207 -0.0763 -0.2062  0.0229
    1W        W41166  23.731  29.501   7.187 -0.1357  0.1583 -0.0058
    1W        W41167   2.224   3.112   6.885 -0.0573  0.0236  0.3369
    1W        W41168  21.865  15.442   0.803 -0.2530 -0.1656  0.1707
    1W        W41169   0.292   0.475   8.321 -0.1138  0.2755 -0.3434
    1W        W41170  28.750   5.526   1.162  0.1403  0.0279 -0.0279
    1W        W41171  22.935  26.611   2.238 -0.3699 -0.0561 -0.1716
    1W        W41172  20.156  16.871   9.050  0.2272  0.0263 -0.0585
    1W        W41173  20.201  16.581   7.679 -0.0792 -0.1461  0.0941
    1W        W41174   1.267  16.060   5.974  0.2497  0.1739 -0.0285
    1W        W41175  28.562  16.806   6.785 -0.0906  0.2141 -0.1877
    1W        W41176  19.593  29.531   8.199  0.1688 -0.1530  0.1249
    1W        W41177   3.966   7.498   7.373  0.0984 -0.3349 -0.1560
    1W        W41178   1.631  18.521   7.439  0.0971  0.0759 -0.0437
    1W        W41179   8.648  24.577   7.356  0.0346 -0.0156 -0.0318
    1W        W41180   2.644  13.660   6.928  0.1443 -0.3583  0.0601
    1W        W41181  21.474  23.683   8.937  0.0055 -0.0983  0.2408
    1W        W41182  19.991  25.208   8.558  0.2470 -0.0232 -0.2217
    1W        W41183  13.146  13.550   8.394  0.1409  0.2338  0.1077
    1W        W41184  26.631  11.041   5.606  0.3489 -0.0839 -0.1628
    1W        W41185  30.098   5.484   1.773  0.0942  0.0639 -0.0232
    1W        W41186   9.708   7.735   8.217  0.1396 -0.0080 -0.1807
    1W        W41187  19.365  27.885   0.940  0.4140 -0.0661 -0.0386
    1W        W41188  20.527   1.007   8.374  0.2310 -0.1135 -0.0205
    1W        W41189  25.890   7.371   0.095 -0.1435  0.1743 -0.0947
    1W        W41190   8.710  19.391   1.385 -0.1666  0.0783 -0.0820
    1W        W41191  10.145  12.429   1.394 -0.1244 -0.0332 -0.1723
    1W        W41192  24.960  13.771   7.740 -0.0830 -0.3150  0.1625
    1W        W41193   5.870  20.859   8.745 -0.0211 -0.1711  0.0576
    1W        W41194  14.092  10.795   1.746 -0.3193 -0.2289  0.1112
    1W        W41195  26.443  21.947   2.208 -0.0212  0.2748 -0.1802
    1W        W41196  26.085   8.889   1.485 -0.1511 -0.0246  0.1648
    1W        W41197  29.722  26.069   8.410 -0.0806 -0.1146  0.2938
    1W        W41198  12.615   3.930   8.387 -0.1213  0.1401  0.3201
    1W        W41199  18.761  23.544   8.087 -0.1335  0.0538  0.0538
    1W        W41200  24.668  28.517   1.803 -0.2161  0.1003  0.1099
    1W        W41201  29.875  17.799   7.820  0.2036 -0.1179  0.0925
    1W        W41202   3.287  16.120   8.086  0.0709  0.1253 -0.0165
    1W        W41203  16.549  12.520   7.413 -0.2186 -0.1118 -0.0969
    1W        W41204  27.081  17.190   6.503 -0.2661  0.4251  0.1134
    1W        W41205  22.556  25.996   7.098 -0.1069  0.0459  0.0760
    1W        W41206  21.299  12.481   6.991  0.3067  0.0327  0.0918
    1W        W41207   4.962  18.856   0.019  0.0736 -0.1692 -0.2708
    1W        W41208   4.972  17.465   8.500  0.0480 -0.0724 -0.0398
    1W        W41209  29.981  22.497   0.877 -0.3403 -0.2810 -0.2094
    1W        W41210  11.753  26.915   8.544  0.0010  0.0205  0.0762
    1W        W41211   6.724  21.382   7.101 -0.1337 -0.1466 -0.0621
    1W        W41212  24.987  14.117   8.149 -0.0831 -0.2209  0.2087
    1W        W41213  13.648   3.855   3.411  0.0220 -0.0952  0.1263
    1W        W41214  25.919   6.493   1.689 -0.2832  0.1619  0.2737
    1W        W41215  19.136   3.633   7.797  0.0609  0.3639 -0.0953
    1W        W41216  29.262  12.772   1.926  0.1987 -0.0684 -0.1991
    1W        W41217   4.642  14.627   9.358 -0.2950 -0.0579  0.0487
    1W        W41218  29.377  23.102   6.651 -0.0407  0.3057 -0.1381
    1W        W41219  27.505  28.617   0.321 -0.0762  0.0019 -0.0635
    1W        W41220  17.774  27.703   0.368  0.2311  0.0879  0.2172
    1W        W41221   3.481  17.616   6.070 -0.3748  0.0623  0.1113
    1W        W41222  27.356  13.555   5.816 -0.1128 -0.1730  0.0905
    1W        W41223  27.046  11.768   1.551  0.2367 -0.1555 -0.0816
    1W        W41224   1.858   2.072   6.923  0.0243 -0.1727  0.3598
    1W        W41225   6.498   1.683   7.936  0.1103 -0.0344 -0.3646
    1W        W41226  26.150   3.239   6.505  0.1351 -0.0535  0.0429
    1W        W41227   0.958  18.602   8.751 -0.1162  0.2150 -0.1415
    1W        W41228  27.311   7.510   1.418 -0.1098  0.0520  0.3597
    1W        W41229   5.091  13.778   1.308  0.0987 -0.1465  0.1299
    1W        W41230  25.206   2.145   8.526 -0.0092  0.0155  0.2811
    1W        W41231  29.465   1.030   8.567  0.0467  0.0793 -0.3106
    1W        W41232   2.704   1.585   0.071 -0.0995  0.0975  0.2324
    1W        W41233  11.725  18.890   1.557 -0.0464 -0.1240  0.1672
    1W        W41234  21.817   3.211   9.123  0.1249 -0.0178 -0.1114
    1W        W41235  19.795  22.648   7.271  0.2744 -0.3253  0.1547
    1W        W41236  29.905   8.028   6.490 -0.1015  0.0108  0.3676
    1W        W41237  18.802   6.094   2.347 -0.1284  0.0628 -0.1835
    1W        W41238   5.548  23.517   7.387  0.2462 -0.1215  0.2081
    1W        W41239   4.309   2.710   3.339  0.1138  0.0157 -0.1091
    1W        W41240   9.188   0.565   0.541 -0.0741  0.1745 -0.2237
    1W        W41241  29.982  22.030   7.101  0.1821 -0.1255 -0.0168
    1W        W41242  21.668  26.297   2.633 -0.2732  0.0210 -0.1918
    1W        W41243   9.780  14.755   1.828 -0.2869 -0.0242  0.1219
    1W        W41244  21.920  22.500   6.753  0.0632 -0.2839  0.0992
    1W        W41245  20.359   8.489   0.061 -0.1875 -0.2755 -0.0158
    1W        W41246  14.223   1.616   3.362 -0.0891  0.1959 -0.1531
    1W        W41247  13.863   1.056   8.245 -0.0394  0.1711 -0.1943
    1W        W41248   6.766   7.298   0.226  0.2105 -0.0328  0.0574
    1W        W41249   4.751   3.466   7.057 -0.3425 -0.2271  0.0303
    1W        W41250   6.177   1.096   7.613  0.1276  0.0181 -0.1929
    1W        W41251  27.716  21.690   0.605  0.0100  0.4016 -0.1256
    1W        W41252   4.493  14.766   7.929 -0.1919  0.0630 -0.0442
    1W        W41253  24.917  23.144   2.310  0.0844 -0.0955 -0.0395
    1W        W41254  18.684  27.506   1.442 -0.1068  0.0240 -0.1232
    1W        W41255  17.183  20.952   7.546  0.1373 -0.4357 -0.0502
    1W        W41256   8.671  14.694   1.358 -0.0580  0.0569 -0.0268
    1W        W41257  26.277   2.844   8.701  0.1199  0.1071  0.0837
    1W        W41258  19.978  25.667   2.470  0.0790 -0.1412 -0.2568
    1W        W41259   0.780  25.060   7.326  0.1457 -0.4071 -0.0500
    1W        W41260  23.309  12.383   7.925 -0.1642  0.2457 -0.0202
    1W        W41261  17.961  16.560   1.787  0.0563 -0.1346 -0.3274
    1W        W41262  18.397  24.571   0.691 -0.3096 -0.2071 -0.0520
    1W        W41263  24.906  27.070   1.007 -0.1849 -0.2939 -0.2514
    1W        W41264  22.587  25.178   0.300 -0.1049  0.1395 -0.0655
    1W        W41265  22.535  15.366   7.597  0.0292  0.1310 -0.0401
    1W        W41266  26.066  22.336   7.607 -0.1339 -0.2051 -0.1041
    1W        W41267  28.556  10.966   7.979  0.1549  0.1400 -0.0330
    1W        W41268  24.851   8.208   6.534  0.2296  0.0031  0.0832
    1W        W41269  12.484  19.151   7.998  0.1350  0.2525  0.2804
    1W        W41270   6.516   3.933   1.242 -0.1434  0.0592 -0.0959
    1W        W41271  26.671   1.929   1.517 -0.1267 -0.0805  0.0468
    1W        W41272  20.854  15.715   7.944  0.1663  0.0198  0.3036
    1W        W41273  28.785  17.438   7.653  0.1785 -0.0592 -0.1721
    1W        W41274  29.989  10.318   5.564  0.3876  0.3668 -0.2182
    1W        W41275  11.623   1.032   2.550 -0.3210  0.0796 -0.2583
    1W        W41276  13.122   5.237   2.461  0.0483  0.2286  0.0037
    1W        W41277  13.131  26.416   8.068  0.1137  0.1405 -0.0905
    1W        W41278   7.721   5.254   8.491  0.1493  0.2240 -0.1527
    1W        W41279  12.534   0.122   3.450 -0.3473 -0.2246 -0.2441
    1W        W41280   1.228  15.594   5.782  0.2831 -0.1281 -0.0003
    1W        W41281   1.140  23.884   5.261 -0.0307 -0.0545 -0.1152
    1W        W41282   1.427   5.710   7.329  0.1431  0.0425  0.0751
    1W        W41283  26.196   1.290   1.235  0.1190  0.1460 -0.2208
    1W        W41284  13.236  23.302   9.046  0.0804  0.1321 -0.0389
    1W        W41285  25.043  25.219   1.704  0.1652  0.0462 -0.0018
    1W        W41286   7.996  25.484   2.192  0.1673  0.0561 -0.0530
    1W        W41287  21.776   8.944   0.836  0.2241 -0.0172 -0.1453
    1W        W41288   9.568   8.771   1.802 -0.0672  0.1988 -0.2334
    1W        W41289  28.757  26.199   0.038 -0.0040 -0.1793 -0.2642
    1W        W41290   1.004  10.676   7.066 -0.1244  0.0289  0.1928
    1W        W41291   8.329  24.439   6.010  0.0911  0.0202 -0.3509
    1W        W41292  16.181  29.302   7.220 -0.0987  0.2369 -0.1118
    1W        W41293  21.733  25.177   2.370  0.1879  0.2508  0.1502
    1W        W41294  19.862  25.121   2.801 -0.0812  0.0183  0.2189
    1W        W41295  25.222   1.629   8.709 -0.0469  0.1831  0.0708
    1W        W41296  11.968   3.920   7.091 -0.1219 -0.0488 -0.4092
    1W        W41297  23.267  18.966   0.188 -0.1618  0.3882  0.1482
    1W        W41298  25.389   3.647   2.063 -0.0535  0.1436 -0.0676
    1W        W41299   1.992  18.739   7.036  0.3368  0.4025 -0.4439
    1W        W41300   0.830  18.679   7.619 -0.2456 -0.1719  0.0326
    1W        W41301   8.562  26.067   7.247 -0.1835  0.0586  0.1429
    1W        W41302  22.036  27.799   8.734 -0.3838 -0.2816  0.2103
    1W        W41303   8.086  17.859   7.136  0.2128 -0.2077 -0.1769
    1W        W41304  19.992   1.374   8.410 -0.0975  0.0056  0.1458
    1W        W41305   0.454  29.386   2.026 -0.0907 -0.0918 -0.1502
    1W        W41306   7.968  19.055   8.809  0.0438  0.1166 -0.1611
    1W        W41307  10.968   7.890   2.753  0.2145  0.2695  0.1713
    1W        W41308   9.802  21.677   1.703 -0.0606  0.4336  0.0964
    1W        W41309   5.759  16.419   2.263  0.3596  0.2039 -0.1521
    1W        W41310  21.912   4.927   1.805 -0.0014 -0.1047 -0.2193
    1W        W41311  26.955   5.343   6.304  0.3435  0.0102  0.0790
    1W        W41312  24.887  11.188   6.107  0.1129 -0.1447  0.0438
    1W        W41313   4.964   3.362   0.177 -0.0467  0.1737  0.3363
    1W        W41314  18.359   6.056   7.998 -0.0711 -0.2090 -0.3274
    1W        W41315  13.337  23.545   0.572  0.0425  0.2354  0.2005
    1W        W41316  21.844  23.684   8.513 -0.0092 -0.0611  0.0245
    1W        W41317  26.576   0.795   6.639  0.0328 -0.0576 -0.1095
    1W        W41318  17.134   7.293   1.910  0.0486 -0.0619  0.2890
    1W        W41319  23.960   0.608   6.924  0.2102 -0.0751 -0.1864
    1W        W41320  26.545   9.438   6.652  0.3740  0.0077  0.1192
    1W        W41321  19.248  25.077   6.581 -0.0275 -0.1827 -0.1003
    1W        W41322  21.428   5.705   6.722  0.0558  0.2869 -0.0231
    1W        W41323  15.318  18.159   9.269  0.2711  0.0746  0.2809
    1W        W41324  22.655   8.907   8.683  0.1549 -0.1328 -0.1482
    1W        W41325  13.877   4.072   0.249 -0.0212  0.1052 -0.2118
    1W        W41326  13.842   4.297   7.952  0.0462 -0.0528 -0.0805
    1W        W41327   2.006  29.216   1.378  0.1221  0.4412 -0.1302
    1W        W41328  16.173   0.399   1.353  0.1052 -0.0206 -0.1017
    1W        W41329  21.357  22.630   1.461  0.0274 -0.2292  0.2355
    1W        W41330   1.207  17.149   1.453 -0.2108  0.1759  0.0493
    1W        W41331   3.685   6.931   7.430 -0.0918 -0.0124  0.0019
    1W        W41332  13.921  18.228   1.748  0.1119 -0.1983  0.0846
    1W        W41333  27.627  12.396   1.487  0.1056  0.1667  0.0587
    1W        W41334  16.179  18.643   8.838 -0.2308  0.0200  0.1520
    1W        W41335  20.113  17.173   2.101 -0.2744 -0.0389 -0.0602
    1W        W41336   8.171  26.169   2.471  0.0254 -0.0838 -0.0471
    1W        W41337  17.364  22.799   1.768  0.0146  0.0812  0.1153
    1W        W41338  21.456   0.291   1.317  0.1576 -0.1066  0.4992
    1W        W41339  12.134  26.411   7.888 -0.2442 -0.3861 -0.0500
    1W        W41340  21.782  14.986   7.764  0.0713 -0.2246 -0.3786
    1W        W41341  10.062  28.571   2.154  0.6180 -0.1625 -0.2455
    1W        W41342  29.710  23.757   1.458 -0.2538  0.1619  0.0769
    1W        W41343  28.293   8.870   5.833 -0.0750 -0.0651 -0.2040
    1W        W41344  11.804   9.954   2.024  0.0175  0.0160 -0.0605
    1W        W41345  24.576   4.418   6.798 -0.1114 -0.1729  0.0957
    1W        W41346  23.902  14.883   6.459  0.0779 -0.0921 -0.0855
    1W        W41347  16.720  16.628   8.486 -0.0941  0.2145 -0.0156
    1W        W41348   8.597   8.573   0.670 -0.0841  0.1670  0.1282
    1W        W41349   5.142   6.745   7.868 -0.0201 -0.4841  0.3281
    1W        W41350  19.575  22.851   7.925  0.1285 -0.0805  0.1525
    1W        W41351   1.111   5.336   2.645  0.4464 -0.1059  0.1091
    1W        W41352   6.615  25.030   0.463  0.3248  0.0856  0.0812
    1W        W41353  15.703   3.574   2.219 -0.0424  0.2174 -0.0811
    1W        W41354  17.453   9.966   7.154  0.0392 -0.2760 -0.2550
    1W        W41355   9.399  23.824   6.712 -0.0818 -0.1723 -0.0521
    1W        W41356  23.274   1.835   2.155 -0.0392 -0.2308  0.1593
    1W        W41357  14.515  17.995   2.485 -0.2831  0.1124  0.1886
    1W        W41358  10.089   3.390   1.616  0.1343 -0.0756 -0.0897
    1W        W41359  29.128  11.349   2.689  0.0481  0.2971  0.1435
    1W        W41360   8.927  19.346   7.690  0.0343 -0.0535 -0.0917
    1W        W41361  15.040   7.353   8.215 -0.4562 -0.2027  0.0553
    1W        W41362   1.288   0.674   0.216 -0.2752 -0.1148 -0.0379
    1W        W41363  26.219  15.016   7.960  0.0103  0.0552 -0.3161
    1W        W41364   4.128   7.120   7.608  0.0026 -0.0624  0.1303
    1W        W41365  16.183   3.066   2.023 -0.0069  0.0311  0.1815
    1W        W41366  24.423  30.058   9.000  0.1245  0.0678 -0.1042
    1W        W41367   3.838   0.269   7.627 -0.0314  0.0510  0.1785
    1W        W41368   7.973  25.701   0.230 -0.0433 -0.3805  0.2370
    1W        W41369  26.555  29.343   2.247 -0.2976  0.0030 -0.0089
    1W        W41370   9.595  16.348   0.491  0.0819 -0.0482  0.2058
    1W        W41371  16.477   6.843   8.176  0.0240  0.2340 -0.1231
    1W        W41372   8.480  27.350   2.489 -0.2858  0.1057 -0.4044
    1W        W41373   1.571  25.047   0.518 -0.2789 -0.0968 -0.1827
    1W        W41374   3.150  29.295   0.270  0.2898 -0.1243 -0.2673
    1W        W41375  19.556   8.653   1.347 -0.0219 -0.1518  0.0192
    1W        W41376  23.825  14.922   7.333  0.0433 -0.0520 -0.2490
    1W        W41377  14.430   8.302   1.247 -0.0589 -0.0039  0.1214
    1W        W41378  24.820  11.442   2.909 -0.0814 -0.3621 -0.0890
    1W        W41379  13.987   6.629   0.058 -0.2571  0.2388  0.2591
    1W        W41380   9.970  23.358   5.749  0.3473  0.1377  0.1642
    1W        W41381  22.431   4.543   1.590 -0.1322 -0.0409  0.0392
    1W        W41382   5.625  16.542   7.439 -0.2426 -0.1986  0.0979
    1W        W41383   1.823   4.881   7.471 -0.0435  0.2040  0.0499
    1W        W41384  15.672  11.972   1.038 -0.2636  0.1379  0.0918
    1W        W41385   9.314  16.566   7.516 -0.1402  0.0321  0.1842
    1W        W41386   1.479   6.898   2.619  0.1343  0.0156  0.3404
    1W        W41387  18.604   5.495   8.618  0.0747  0.4807 -0.2260
    1W        W41388  25.321   1.124   6.643 -0.1477  0.5350 -0.0968
    1W        W41389   5.639  10.557   0.344 -0.0589  0.2151 -0.0340
    1W        W41390  14.907   5.781   7.593 -0.2368 -0.1693  0.0422
    1W        W41391  10.999   8.711   1.747 -0.1487 -0.1218 -0.0487
    1W        W41392  28.457   0.221   9.090 -0.3637 -0.0413 -0.2100
    1W        W41393  23.064  20.947   5.826 -0.0201 -0.1395 -0.0210
    1W        W41394   1.147  28.815   6.637  0.3428  0.2498  0.0025
    1W        W41395  18.899  24.251   2.437  0.2296  0.1224  0.0401
    1W        W41396  10.622   1.836   3.109 -0.0633 -0.2967  0.0359
    1W        W41397   9.542  22.022   7.289 -0.0337  0.0285 -0.0699
    1W        W41398   5.411  12.940   9.134  0.0008 -0.3188  0.0904
    1W        W41399  28.218   6.224   0.918 -0.1554  0.0966 -0.0447
    1W        W41400  18.294  11.056   1.500 -0.0908 -0.2252 -0.2271
    1W        W41401   1.986  29.013   0.080 -0.0157 -0.2500 -0.0402
    1W        W41402  20.018   5.132   1.021  0.0128  0.2765 -0.0372
    1W        W41403  12.805  16.534   0.796 -0.1184 -0.2720  0.1653
    1W        W41404   5.072  25.499   9.083  0.2063  0.2910 -0.3648
    1W        W41405   1.674  28.577   9.268 -0.0331  0.1255 -0.1679
    1W        W41406  27.158   4.881   2.296  0.2060 -0.1009 -0.1846
    1W        W41407   9.278   6.050   0.150  0.0503  0.2462 -0.2738
    1W        W41408   3.908   4.975   1.769 -0.2190  0.2577 -0.0503
    1W        W41409   7.810  22.989   0.753 -0.2453  0.1169 -0.1163
    1W        W41410   2.399  18.986   7.147  0.0401  0.1477 -0.0805
    1W        W41411  21.624  11.668   6.280  0.3484  0.1405 -0.0894
    1W        W41412   8.620  23.971   7.947 -0.1033 -0.0455 -0.2666
    1W        W41413   1.581  28.207   3.043 -0.0445 -0.1198  0.0796
    1W        W41414  10.850  27.052   7.313  0.0684 -0.1295 -0.1343
    1W        W41415  15.236  12.161   1.264 -0.0515  0.0450  0.1030
    1W        W41416  24.795   3.853   2.236 -0.1010 -0.1930  0.2297
    1W        W41417  19.432  15.378   0.045  0.2669 -0.0622  0.1663
    1W        W41418  21.024  23.794   7.573 -0.0916  0.0421 -0.0756
    1W        W41419  27.987  27.580   0.127  0.0221 -0.1668 -0.0138
    1W        W41420  11.009   1.241   7.719 -0.0927 -0.3394 -0.1050
    1W        W41421   5.110   1.040   0.265 -0.1491 -0.1105 -0.1479
    1W        W41422  25.062   0.534   7.445  0.0341 -0.0076 -0.3867
    1W        W41423   2.227  15.759   1.386 -0.0352  0.0930  0.2044
    1W        W41424  23.434  10.965   7.560 -0.1116  0.1526 -0.2097
    1W        W41425  18.075  13.801   7.332 -0.3415  0.2403 -0.1725
    1W        W41426   8.517  27.093   2.030  0.0597 -0.2845  0.0477
    1W        W41427   8.810  22.713   1.269  0.0159  0.0752 -0.3578
    1W        W41428   8.885  24.002   6.533 -0.2339 -0.1791 -0.0526
    1W        W41429  20.204  14.358   1.120 -0.3408 -0.1385  0.0318
    1W        W41430  28.110   9.761   6.770 -0.1325 -0.0962 -0.0545
    1W        W41431  24.094   0.363   6.455  0.0524  0.0899  0.0046
    1W        W41432  23.842   9.852   7.214  0.0988  0.0063  0.4835
    1W        W41433   1.727  24.571   0.352  0.1375 -0.6616  0.0487
    1W        W41434   4.903  11.434   1.039 -0.0553 -0.2097 -0.0916
    1W        W41435   5.345   9.230   2.715 -0.2679 -0.1000  0.2121
    1W        W41436  25.925  16.928   1.709  0.1712 -0.1028  0.1273
    1W        W41437   7.908  21.971   0.479 -0.1222  0.0038  0.2686
    1W        W41438   5.949  17.263   8.163 -0.2892  0.0794 -0.2383
    1W        W41439  10.786  15.356   7.452 -0.0966  0.0315 -0.0417
    1W        W41440  18.889  28.026   0.688 -0.1554 -0.0457  0.2156
    1W        W41441  26.615   9.321   9.228  0.2248  0.3031 -0.0975
    1W        W41442  29.105  29.273   0.787  0.0544  0.0311  0.0963
    1W        W41443   7.462   1.405   1.280 -0.0253 -0.2640  0.3519
    1W        W41444  24.944  19.256   5.586  0.1470 -0.2622 -0.2747
    1W        W41445  25.430  21.487   1.472  0.1902  0.1272 -0.0376
    1W        W41446  20.293  15.858   0.352  0.0968  0.0095  0.0395
    1W        W41447   9.916  28.347   7.767  0.0714 -0.0717  0.2147
    1W        W41448   7.852  17.322   1.234 -0.0880 -0.3938 -0.2375
    1W        W41449  21.098   6.662   7.113  0.2303 -0.1499  0.1550
    1W        W41450  15.975  14.090   7.755 -0.0314 -0.2567 -0.1567
    1W        W41451  11.061  13.817   2.048  0.0970  0.1035 -0.0329
    1W        W41452   5.545   7.018   7.019 -0.0364 -0.4298  0.0998
    1W        W41453   7.263   5.036   2.195  0.0764  0.0634  0.1376
    1W        W41454  16.623  26.992   9.317  0.4286  0.1566 -0.0366
    1W        W41455  22.390  22.262   7.532  0.1342 -0.0487 -0.1222
    1W        W41456  26.035  18.349   0.852  0.0104 -0.0409 -0.1020
    1W        W41457  11.501  23.879   6.876  0.0676  0.2131  0.0862
    1W        W41458  24.604  20.844   8.947  0.1081 -0.3183 -0.0707
    1W        W41459   2.347   3.594   7.000 -0.3485  0.1178  0.0658
    1W        W41460   9.013   2.439   8.600  0.0717 -0.0463 -0.1883
    1W        W41461   5.742  25.266   1.638  0.0251  0.0337 -0.0895
    1W        W41462  23.743  17.102   7.815 -0.0099 -0.2525 -0.0045
    1W        W41463   1.295   4.800   1.939  0.0644 -0.2743  0.2753
    1W        W41464   1.427  25.431   1.387  0.0163 -0.3152 -0.0447
    1W        W41465   5.836  23.012   7.332 -0.4455 -0.3959 -0.1417
    1W        W41466   5.976  19.751   1.305  0.5881  0.1571  0.1617
    1W        W41467   1.512  10.711   8.403  0.1915 -0.2413 -0.4540
    1W        W41468  21.330  26.818   7.342  0.2228  0.2031  0.2267
    1W        W41469  21.569  25.379   1.322  0.1658  0.1669 -0.2048
    1W        W41470  28.397  14.636   8.748 -0.2154 -0.3273  0.0094
    1W        W41471  11.386  24.274   9.329 -0.1017  0.0195  0.1594
    1W        W41472  18.234  17.660   7.949 -0.2564  0.2997 -0.6483
    1W        W41473  24.845  26.625   2.475 -0.0253  0.0019 -0.0207
    1W        W41474  28.076  21.557   1.376 -0.2064 -0.0540  0.1171
    1W        W41475  21.009   2.377   8.910 -0.0826 -0.0550  0.2420
    1W        W41476  17.509  13.176   0.592  0.0462 -0.2424  0.0755
    1W        W41477  29.851  17.620   6.626 -0.0182  0.0597 -0.0659
    1W        W41478   3.518  11.395   1.408  0.0575  0.2168  0.1181
    1W        W41479  25.909  23.234   8.584 -0.0725  0.1990  0.1832
    1W        W41480   2.470  10.780   9.253  0.0573 -0.0696 -0.1176
    1W        W41481  25.757   5.476   2.660 -0.0743 -0.0438  0.0100
    1W        W41482   1.016  16.431   6.716 -0.1214 -0.2104  0.1145
    1W        W41483  22.216   4.633   0.452 -0.1532 -0.1474 -0.2238
    1W        W41484   9.587   7.213   8.517 -0.1925  0.1982  0.1431
    1W        W41485  30.072   8.077   2.100 -0.2561 -0.1339 -0.4302
    1W        W41486  14.011  25.074   3.261  0.2224  0.4570 -0.0545
    1W        W41487   6.352  16.121   8.345  0.0390 -0.0978  0.2718
    1W        W41488  29.256  19.173   1.091  0.0086  0.1824  0.1396
    1W        W41489  10.797   8.260   1.684 -0.0935  0.1762  0.1834
    1W        W41490  13.273  24.257   8.643 -0.2124 -0.0128  0.2441
    1W        W41491   1.917  11.362   6.439 -0.1005 -0.0011  0.1765
    1W        W41492  20.067   3.748   7.639  0.0199 -0.0592  0.0185
    1W        W41493  14.392  28.714   9.195  0.0744 -0.0973 -0.2007
    1W        W41494  14.146  18.947   8.539  0.0218 -0.0374  0.0202
    1W        W41495  12.675   9.898   1.936 -0.0157  0.2427  0.0518
    1W        W41496  27.517  26.635   2.356 -0.0161  0.1433  0.1077
    1W        W41497  18.848  21.219   2.066 -0.0230  0.1409  0.0647
    1W        W41498   5.373  20.052   5.926  0.2315 -0.2195  0.2059
    1W        W41499   6.946  22.419   9.190 -0.0613  0.1620  0.1115
    1W        W41500   3.740  17.059   1.554  0.0029  0.0891 -0.0841
    1W        W41501   6.197  11.430   7.168  0.0576 -0.3847  0.2366
    1W        W41502  11.464  18.690   2.186  0.0263 -0.1596 -0.3055
    1W        W41503  28.145   9.710   8.695 -0.1478 -0.0289  0.0692
    1W        W41504  27.293   5.931   8.743 -0.0957 -0.1059  0.3144
    1W        W41505  10.964  15.674   7.793  0.1533  0.0634 -0.2362
    1W        W41506  16.688  14.726   0.912  0.2362 -0.1688 -0.2503
    1W        W41507  23.345  12.355   6.494  0.2411 -0.2262 -0.0448
    1W        W41508  16.845  25.805   7.578  0.3063 -0.0022 -0.0332
    1W        W41509   2.594   5.486   6.629 -0.0676  0.4290 -0.2822
    1W        W41510  27.129  10.654   1.563 -0.0624 -0.1426  0.0561
    1W        W41511   4.805  25.884   8.966 -0.2795 -0.2305 -0.0870
    1W        W41512  16.963   5.170   0.241 -0.1369 -0.0103  0.1260
    1W        W41513  11.377   2.657   2.637 -0.0821 -0.0890  0.1997
    1W        W41514  12.735   9.135   2.226 -0.1608  0.3374  0.0271
    1W        W41515  23.991  29.763   0.575 -0.1587  0.2178 -0.1601
    1W        W41516  15.526  21.901   8.933 -0.1168 -0.2733  0.0769
    1W        W41517  12.491   6.898   2.125  0.1319  0.0800 -0.1488
    1W        W41518  26.706   8.817   0.163  0.1975  0.0006 -0.3456
    1W        W41519   5.296  27.574   0.011  0.0040  0.2764  0.2466
    1W        W41520  23.719  12.074   0.789  0.2897  0.0970 -0.1267
    1W        W41521  19.239  18.767   0.165 -0.2130 -0.0207  0.1329
    1W        W41522  11.623  23.538   7.282  0.1962  0.2413 -0.2341
    1W        W41523  17.859  10.696   7.779 -0.1198 -0.2131 -0.0481
    1W        W41524  16.458  15.345   8.526  0.2595 -0.0232  0.1128
    1W        W41525  27.662  27.349   6.704 -0.0385  0.1455 -0.0402
    1W        W41526   7.217   6.095   7.893 -0.2811  0.1232  0.1308
    1W        W41527  17.171   1.632   2.286  0.2558 -0.0993  0.0108
    1W        W41528   7.550  26.152   9.290 -0.2094 -0.1674 -0.1398
    1W        W41529   7.595   0.847   2.688 -0.4339 -0.1842  0.0111
    1W        W41530  28.592  17.635   8.937 -0.3021  0.3124 -0.0374
    1W        W41531  17.158  21.717   0.616  0.1405 -0.1732  0.1346
    1W        W41532  26.000  21.617   8.303 -0.3332 -0.0709  0.0321
    1W        W41533   4.648   1.654   3.540  0.0160  0.2915 -0.0534
    1W        W41534   6.854  17.808   9.230  0.0106 -0.0453 -0.0249
    1W        W41535  24.731  13.784   6.359  0.2228 -0.2354  0.0017
    1W        W41536  16.841  21.989   1.583 -0.0169 -0.1450 -0.1974
    1W        W41537  20.061  28.463   9.085  0.1053  0.0739  0.1752
    1W        W41538  23.988  20.555   5.982  0.0856 -0.0050  0.0459
    1W        W41539  11.087  21.536   0.852 -0.0040 -0.2170 -0.2372
    1W        W41540  16.926   6.392   1.887  0.3006 -0.0214  0.2199
    1W        W41541  13.682   9.963   1.492 -0.0451 -0.0812  0.1206
    1W        W41542  13.124  25.127   8.873  0.1862 -0.2119  0.1718
    1W        W41543   2.566   0.255   7.377  0.1106 -0.1898  0.1192
    1W        W41544   0.517   3.115   2.710  0.0474 -0.1163  0.2950
    1W        W41545  19.780  11.037   0.680  0.1217  0.0957  0.1493
    1W        W41546  17.074  13.503   1.274  0.0057 -0.1064  0.0147
    1W        W41547  15.291   1.662   1.256 -0.2918 -0.1622  0.0239
    1W        W41548   8.628  29.913   7.734  0.2801 -0.2460 -0.0713
    1W        W41549  21.749   4.808   0.041 -0.1315 -0.0464 -0.4077
    1W        W41550  25.818  11.431   8.403 -0.1750  0.3156 -0.1546
    1W        W41551   1.141   2.855   9.096 -0.0273 -0.1748 -0.3334
    1W        W41552  17.538   0.298   3.774  0.0971 -0.1476  0.1322
    1W        W41553   2.213  23.196   8.825  0.0782 -0.2653 -0.1752
    1W        W41554  26.432  12.154   1.923 -0.0339  0.0182 -0.0171
    1W        W41555  21.311  10.564   8.260 -0.1416  0.1439 -0.3572
    1W        W41556  24.869  24.088   1.414 -0.3643  0.1243  0.2262
    1W        W41557  11.507   6.967   2.958 -0.0660  0.1271  0.3547
    1W        W41558  23.826  27.417   1.873  0.2000  0.0138  0.0351
    1W        W41559   5.340  13.295   2.041  0.1136  0.0744  0.1195
    1W        W41560  17.646  24.114   2.492 -0.0547 -0.2034 -0.1646
    1W        W41561   9.698  28.048   9.401 -0.0015  0.2257  0.0715
    1W        W41562  21.711   6.609   0.528  0.1352  0.0851  0.1081
    1W        W41563  20.849   9.186   0.565  0.0028  0.1676 -0.1335
    1W        W41564  26.869  24.074   0.882  0.1693  0.2001  0.0853
    1W        W41565   8.150  18.562   6.553 -0.0958  0.2707  0.0731
    1W        W41566   0.492  24.404   8.187 -0.0320 -0.2797 -0.0099
    1W        W41567  10.640  29.191   6.754  0.1235 -0.1268 -0.2642
    1W        W41568  23.545  15.819   2.256 -0.1271  0.3901 -0.2882
    1W        W41569  25.236   4.033   0.758  0.2704 -0.0381 -0.1233
    1W        W41570   8.893   2.137   0.219 -0.2122  0.1530 -0.2564
    1W        W41571   4.811   0.877   0.930 -0.0227  0.1262  0.1260
    1W        W41572   6.943  20.804   6.512 -0.5587 -0.2293  0.1194
    1W        W41573  28.146  13.654   8.636 -0.3211  0.4163 -0.1610
    1W        W41574   4.571  25.323   8.981 -0.1526 -0.1406  0.2538
    1W        W41575  11.972  15.686   0.424 -0.1228 -0.1245 -0.2545
    1W        W41576  14.889  29.245   1.915  0.0801 -0.0677  0.1395
    1W        W41577  27.844  15.035   1.072  0.2805 -0.2273 -0.1010
    1W        W41578  10.584  21.284   0.720  0.3107  0.1495  0.1796
    1W        W41579  13.303  10.870   7.504  0.3006 -0.3592  0.2841
    1W        W41580  15.852  26.637   0.371  0.0757  0.2458 -0.0054
    1W        W41581  28.972   9.266   1.185 -0.1360 -0.0141  0.0478
    1W        W41582  26.074  24.529   9.068  0.2277  0.1353  0.1667
    1W        W41583   1.013  13.992   0.619 -0.2393 -0.0524  0.2095
    1W        W41584   6.028   9.293   7.694 -0.0667 -0.2108 -0.0290
    1W        W41585  14.301  14.948   7.818 -0.0912  0.0722  0.0493
    1W        W41586  25.902  10.286   6.763  0.0442  0.1583  0.3842
    1W        W41587  18.422   5.643   3.017 -0.0334 -0.3296 -0.1254
    1W        W41588  12.165  15.120   7.447 -0.3977  0.0950 -0.1110
    1W        W41589   6.760   9.264   1.740  0.1944  0.0565 -0.0871
    1W        W41590   7.143  10.234   7.876  0.0167 -0.1666 -0.3363
    1W        W41591  23.172  17.864   7.007  0.0115  0.0026  0.0138
    1W        W41592  24.055   5.263   2.198  0.0765  0.0926 -0.1307
    1W        W41593   8.935   3.820   1.285 -0.2099 -0.0206  0.1552
    1W        W41594  17.591  10.002   8.003  0.2087 -0.0862 -0.1732
    1W        W41595  13.151  17.447   2.650  0.2230 -0.0429 -0.0469
    1W        W41596   4.108  16.860   7.761 -0.4016  0.2831 -0.4441
    1W        W41597   7.821  28.505   3.217  0.0543 -0.4015  0.1812
    1W        W41598  29.638   7.253   0.413  0.1817 -0.2111 -0.2931
    1W        W41599  25.860  10.715   9.208 -0.1262  0.1714  0.0069
    1W        W41600   3.837  26.214   7.558 -0.0167  0.2036 -0.0017
    1W        W41601  11.558   7.123   8.085 -0.1588 -0.3685 -0.2618
    1W        W41602   4.324   5.740   8.920 -0.0623 -0.0016 -0.1861
    1W        W41603  17.063  17.020   8.634 -0.0068  0.1923 -0.0504
    1W        W41604   9.149  23.901   5.643 -0.3123 -0.1252 -0.2372
    1W        W41605  17.124  10.720   8.648  0.1357  0.2349  0.0689
    1W        W41606  18.152  27.569   1.157 -0.3430  0.2144 -0.3148
    1W        W41607   1.749  12.425   7.861  0.3340 -0.1655  0.2373
    1W        W41608  22.159   8.572   0.935 -0.0245 -0.0950  0.2959
    1W        W41609  22.598  10.613   1.336  0.2092  0.2845 -0.1179
    1W        W41610  25.869  12.330   7.162  0.1421  0.0661 -0.1185
    1W        W41611  26.545   5.361   0.098 -0.3954  0.0220  0.0603
    1W        W41612  30.118  24.075   5.983  0.2531 -0.1044 -0.1041
    1W        W41613  17.859  25.219   3.204 -0.1790 -0.0607  0.2099
    1W        W41614  18.085  16.496   1.275  0.2388  0.0830 -0.0434
    1W        W41615  28.721  22.057   2.137 -0.3483 -0.0909 -0.3740
    1W        W41616  18.098  28.035   0.860  0.0217  0.1672 -0.1375
    1W        W41617   8.427  21.042   9.155 -0.1100  0.0955 -0.0880
    1W        W41618   6.168  15.974   5.875  0.0405  0.0611  0.0114
    1W        W41619  16.463  23.379   3.034 -0.2933  0.2476 -0.2575
    1W        W41620  25.503  11.143   8.027  0.2532 -0.0772  0.0459
    1W        W41621   4.134  29.415   7.847 -0.1314  0.2557  0.0599
    1W        W41622   6.117   7.359   8.704 -0.1229 -0.1431  0.0768
    1W        W41623   2.050  24.903   0.629  0.0733 -0.2093 -0.1349
    1W        W41624   1.595   3.832   0.877  0.3106  0.0222  0.0734
    1W        W41625  24.106  18.940   8.884 -0.0447 -0.2099  0.2608
    1W        W41626   7.985   3.344   9.084 -0.2191  0.2387 -0.0568
    1W        W41627   1.571  10.613   6.552 -0.2676 -0.3930  0.0579
    1W        W41628  12.581   9.090   8.334  0.1895 -0.0520 -0.0178
    1W        W41629  17.244  27.600   2.484 -0.0619 -0.1442  0.0518
    1W        W41630  13.999  23.748   6.541 -0.3976  0.3104  0.1708
    1W        W41631  12.451  18.096   0.329 -0.0224  0.2177 -0.2660
    1W        W41632  23.510   7.252   1.454  0.0348 -0.0962  0.0913
    1W        W41633  30.032  13.876   8.207 -0.2409  0.0723 -0.3103
    1W        W41634  17.186  19.381   8.079 -0.0307  0.1923  0.2450
    1W        W41635  19.704  14.674   8.568 -0.1983  0.4192  0.0976
    1W        W41636   1.174   2.273   2.363  0.0056 -0.0569 -0.1627
    1W        W41637  12.988  22.681   0.794 -0.1138  0.1529 -0.0275
    1W        W41638   2.031  22.920   7.351 -0.0610 -0.2220  0.3486
    1W        W41639  29.024  11.524   6.554  0.2882 -0.1668  0.1470
    1W        W41640   2.235  14.774   7.677  0.1645  0.0638 -0.0948
    1W        W41641  15.370  27.271   7.831 -0.1529  0.3898  0.0287
    1W        W41642   6.485  29.618   3.208 -0.0588 -0.1143  0.2077
    1W        W41643   3.476  23.737   6.957  0.0782 -0.1835 -0.1466
    1W        W41644  12.234   4.333   8.323  0.0609 -0.0393 -0.0222
    1W        W41645  28.983  28.690   0.077  0.0844  0.2128 -0.0722
    1W        W41646  21.782   9.497   0.060 -0.0750 -0.3512 -0.3357
    1W        W41647  29.460  19.769   6.758  0.2497 -0.0961  0.0439
    1W        W41648   5.378   9.621   1.362  0.1194  0.1074  0.0187
    1W        W41649   2.118  20.897   1.869 -0.2032 -0.2477 -0.1754
    1W        W41650  14.999  15.544   7.420  0.0600  0.2822  0.1992
    1W        W41651  16.029  23.482   0.446  0.0594  0.3188  0.2254
    1W        W41652  28.211  29.517   8.947  0.0642  0.2032  0.0957
    1W        W41653  21.582   0.589   0.304 -0.2342 -0.1411 -0.1914
    1W        W41654  16.261  16.789   8.495  0.3802  0.2675  0.0708
    1W        W41655  18.661  27.271   7.758  0.0175 -0.1698  0.0315
    1W        W41656  18.196   6.998   1.029 -0.2894  0.4983  0.1579
    1W        W41657   0.394  26.919   7.314 -0.1911  0.0535  0.0147
    1W        W41658  11.861   0.663   2.225 -0.1276 -0.2384  0.2592
    1W        W41659  25.870  10.137   1.856  0.1024  0.0482 -0.1722
    1W        W41660   3.273  12.412   0.902 -0.1322 -0.2029  0.4745
    1W        W41661   9.684   3.261   8.834 -0.1188  0.0056  0.1595
    1W        W41662  11.419  22.961   0.691 -0.1562  0.2210  0.0692
    1W        W41663  18.133   4.275   3.182  0.1364  0.1265  0.2565
    1W        W41664  13.180  20.891   0.203  0.0422  0.1916  0.1720
    1W        W41665  24.195  21.565   6.206 -0.2025 -0.2899 -0.0532
    1W        W41666  22.249   6.826   3.294 -0.1537 -0.0465  0.4110
    1W        W41667  22.016  28.665   1.509  0.1132 -0.1346 -0.0363
    1W        W41668   0.692  14.233   9.129 -0.3922  0.1831  0.1352
    1W        W41669   4.284  15.260   7.730  0.2740 -0.1555 -0.2008
    1W        W41670  22.916   9.580   8.032  0.0854  0.1646  0.0857
    1W        W41671  19.872   4.237   7.849 -0.3920 -0.0132  0.2749
    1W        W41672   5.417  21.993   0.763 -0.0558 -0.2296  0.4145
    1W        W41673   2.637  13.270   7.224  0.1670  0.2693  0.0487
    1W        W41674   4.582  22.498   7.069 -0.0176  0.2860  0.3730
    1W        W41675  21.597  24.618   0.533  0.2190  0.1510 -0.1168
    1W        W41676  16.859  10.439   6.903 -0.2261 -0.0471  0.1325
    1W        W41677   4.815  16.234   7.107  0.3155 -0.0338  0.2388
    1W        W41678  11.859   8.226   7.696  0.0447 -0.3195  0.1171
    1W        W41679  14.949  24.835   7.102 -0.0501  0.3140  0.2923
    1W        W41680   2.969  26.791   2.877  0.2903 -0.0026  0.0151
    1W        W41681  17.825   2.595   0.478 -0.2748 -0.0247 -0.0487
    1W        W41682   8.415  24.680   1.782  0.0761 -0.0177  0.2320
    1W        W41683  13.489  29.896   0.511  0.1200 -0.3394  0.2069
    1W        W41684   0.993  22.474   6.338 -0.1511  0.5782 -0.1261
    1W        W41685   6.880   2.965   2.336 -0.2121  0.2944  0.3882
    1W        W41686  10.928   9.155   0.490  0.1474 -0.3458 -0.0433
    1W        W41687   8.464  23.424   8.650  0.3875 -0.1251  0.0901
    1W        W41688   8.116  20.179   6.476 -0.0852 -0.0789  0.3502
    1W        W41689   7.212   8.728   0.400  0.0803 -0.1901  0.1166
    1W        W41690  11.657   4.377   1.678 -0.0104 -0.2161  0.3493
    1W        W41691  22.355  19.273   0.908  0.0923  0.1884  0.0753
    1W        W41692   8.964   7.129   7.644  0.1534 -0.3858  0.1012
    1W        W41693  15.624  14.129   0.136 -0.1914 -0.1334 -0.1571
    1W        W41694  15.303  22.749   7.420 -0.2301  0.2049 -0.0698
    1W        W41695   2.941  14.418   7.450  0.3394 -0.1196 -0.3609
    1W        W41696  28.748  12.082   9.360 -0.2801 -0.0976 -0.0188
    1W        W41697   9.816  28.400   9.049  0.2937  0.1245  0.2595
    1W        W41698  25.423  26.211   8.888  0.0519  0.2373  0.1459
    1W        W41699  13.227   6.219   0.629 -0.0836  0.1711  0.0202
    1W        W41700   0.816   5.656   8.114 -0.1124 -0.1237 -0.2325
    1W        W41701  16.997   4.482   8.380 -0.0992 -0.1701  0.0579
    1W        W41702   8.867   0.014   2.480  0.2248  0.4012  0.2288
    1W        W41703  26.725  15.617   8.451  0.3989  0.1003  0.0597
    1W        W41704  23.194  25.692   9.204 -0.0652 -0.2081 -0.1600
    1W        W41705  11.267  23.976   8.888 -0.0088  0.0681 -0.2178
    1W        W41706   9.773  22.729   1.723  0.0715 -0.3675 -0.1096
    1W        W41707   5.844  16.142   0.526  0.4752 -0.0743  0.0872
    1W        W41708   2.104  14.390   1.876  0.2655 -0.0519  0.0626
    1W        W41709   8.154   5.024   7.816  0.1752  0.1039  0.2295
    1W        W41710  12.612  23.417   8.442 -0.0655 -0.0420 -0.0429
    1W        W41711  25.023   5.052   9.198 -0.3640 -0.0622 -0.1160
    1W        W41712  16.633  16.748   0.251  0.0192  0.1490 -0.4670
    1W        W41713  27.957  15.699   0.917  0.1285  0.0655 -0.2452
    1W        W41714  15.511  14.162   7.441  0.0731 -0.2662  0.1400
    1W        W41715  16.980   9.141   2.250 -0.1186  0.0701  0.4892
    1W        W41716  20.535  12.828   7.154  0.1894  0.0172  0.0190
    1W        W41717   3.824   4.423   9.326  0.0030  0.1086  0.0944
    1W        W41718  10.465   9.089   1.608  0.2011  0.2584  0.2681
    1W        W41719  14.431  22.441   7.708  0.0492  0.4006 -0.1022
    1W        W41720  20.165  26.072   6.833  0.1028 -0.0482 -0.0545
    1W        W41721  24.320  11.526   7.362  0.1122 -0.3791 -0.0215
    1W        W41722   3.187  17.167   7.435  0.0554  0.0737  0.2703
    1W        W41723  24.508  20.776   5.842 -0.0693 -0.0679 -0.2427
    1W        W41724   7.123  26.031   0.555  0.1163  0.0076 -0.2189
    1W        W41725  13.695  18.481   7.780 -0.0754  0.1067 -0.1393
    1W        W41726  23.468   8.063   2.090  0.2666  0.2583  0.1002
    1W        W41727   8.573  12.519   8.686  0.0497  0.0811  0.2085
    1W        W41728  24.784  25.197   7.383 -0.0108  0.0948 -0.1304
    1W        W41729  10.982   2.379   0.036 -0.0598 -0.0854  0.0499
    1W        W41730  28.962  23.090   0.007  0.0017  0.0943  0.0416
    1W        W41731   6.999   6.453   0.175  0.1399 -0.2983 -0.0266
    1W        W41732  20.141  21.519   6.327 -0.0430 -0.1954  0.0969
    1W        W41733   5.828  29.257   6.950  0.0999 -0.1112 -0.2918
    1W        W41734  14.526  24.695   8.901 -0.1073  0.0520 -0.1280
    1W        W41735   6.434  25.758   1.231  0.0037 -0.0518  0.0035
    1W        W41736  19.251   1.572   3.495 -0.1778 -0.1172 -0.2618
    1W        W41737  22.357  23.125   1.435 -0.3594  0.2137  0.3892
    1W        W41738   2.051  12.787   1.615 -0.3413 -0.1861  0.1255
    1W        W41739   6.933  12.108   7.566 -0.0671  0.0397  0.3039
    1W        W41740  27.900  28.436   1.172 -0.0191 -0.2577  0.3502
    1W        W41741  20.536  19.832   1.791 -0.0474  0.1820  0.2141
    1W        W41742   6.075  26.855   2.680  0.1341 -0.0624 -0.0986
    1W        W41743   6.583   4.578   9.036 -0.1656 -0.1012 -0.0183
    1W        W41744   7.972   5.937   2.126  0.0363 -0.0603  0.1219
    1W        W41745  19.795  19.566   7.670 -0.0237  0.0464 -0.2228
    1W        W41746  25.207  24.123   8.077 -0.3110  0.0754  0.2662
    1W        W41747  19.765  17.361   7.281 -0.0030  0.2166  0.0804
    1W        W41748  11.237   8.923   1.280  0.3129  0.0242  0.0462
    1W        W41749  16.118  26.976   1.634 -0.1639  0.1643  0.0503
    1W        W41750  22.025  15.368   7.475 -0.2143  0.0021  0.0766
    1W        W41751  15.437  28.241   9.389  0.1842  0.0909 -0.0833
    1W        W41752  25.554  22.251   9.016  0.1517  0.1245  0.2959
    1W        W41753  21.151   7.692   8.077  0.5326 -0.0754  0.2139
    1W        W41754  19.722  18.643   8.041 -0.0730 -0.0966  0.1089
    1W        W41755  17.419   4.589   3.688  0.3432  0.1084 -0.1934
    1W        W41756   1.990  14.420   1.311 -0.1140 -0.0357  0.2308
    1W        W41757  15.343   6.673   1.966 -0.0517 -0.1661 -0.0596
    1W        W41758  15.023  24.175   0.808 -0.0507 -0.0912 -0.1293
    1W        W41759  19.755  15.290   8.166  0.1493  0.2915 -0.4348
    1W        W41760  21.401  21.703   7.193 -0.0525  0.0005  0.2444
    1W        W41761  10.737  25.071   1.174  0.1704  0.2005 -0.3224
    1W        W41762  23.087  18.105   6.555 -0.0759 -0.0654 -0.1592
    1W        W41763  17.800  21.513   9.067 -0.0231 -0.0910  0.2302
    1W        W41764  15.123   1.182   8.942  0.1479 -0.0503 -0.0911
    1W        W41765   0.739   1.696   0.282 -0.0160 -0.2514 -0.3775
    1W        W41766  24.751   1.541   0.504  0.0183 -0.1591  0.1801
    1W        W41767   9.234  20.679   5.905  0.1836  0.2436  0.0805
    1W        W41768  19.832  27.991   7.245  0.0882 -0.2933 -0.0154
    1W        W41769   6.023   4.538   1.864 -0.3341 -0.1416  0.1685
    1W        W41770  21.626   5.660   2.439  0.0700 -0.2284 -0.2637
    1W        W41771  28.472  15.827   8.246  0.1396  0.0789  0.2575
    1W        W41772  15.059  21.617   1.333  0.1602  0.1869  0.4555
    1W        W41773  11.968  29.481   0.357 -0.0582  0.2698 -0.1106
    1W        W41774   9.469  18.273   0.068 -0.3658  0.1135 -0.1408
    1W        W41775  18.372  20.068   8.117 -0.1265 -0.1483  0.0360
    1W        W41776  17.447  29.425   1.851  0.2285  0.2361  0.0191
    1W        W41777  18.883   6.491   2.106 -0.0030 -0.0109  0.1005
    1W        W41778   5.607  21.517   0.770 -0.3548  0.1618  0.0307
    1W        W41779  16.011   6.910   2.911  0.0987  0.0237  0.0733
    1W        W41780   3.613  16.565   6.693 -0.1090  0.0058  0.0179
    1W        W41781   0.336   5.767   6.006  0.2011 -0.0912 -0.0687
    1W        W41782  18.150  12.924   0.076 -0.1283  0.1462 -0.0047
    1W        W41783   3.809  15.229   8.454  0.2491  0.0398 -0.1743
    1W        W41784   1.810   3.676   8.138 -0.1914  0.3110  0.0233
    1W        W41785   1.961  23.030   6.757  0.0570  0.3187  0.2259
    1W        W41786  21.690  27.834   3.525  0.0632 -0.0441  0.0694
    1W        W41787  10.476  23.034   0.859  0.2607 -0.1034 -0.0741
    1W        W41788  28.800  16.876   0.180  0.1433  0.4333  0.1129
    1W        W41789  18.153   5.147   0.011  0.0516  0.4807  0.0707
    1W        W41790   4.558  28.406   1.252 -0.1431  0.2116 -0.0102
    1W        W41791  25.951  14.905   8.432  0.1668  0.2926  0.2554
    1W        W41792  13.271  28.549   2.056 -0.0381 -0.1854  0.0566
    1W        W41793  29.970  28.668   7.331  0.0554 -0.1953  0.0594
    1W        W41794   0.749   8.527   9.246  0.2065 -0.0850  0.0914
    1W        W41795  29.147  24.628   6.407 -0.2090 -0.1609 -0.0210
    1W        W41796  22.307  29.171   2.753 -0.0037 -0.2290  0.2079
    1W        W41797   9.763  26.056   0.018  0.2731 -0.4022  0.1906
    1W        W41798   1.098  24.531   7.990  0.1716 -0.5057 -0.3392
    1W        W41799  25.981  16.832   0.685  0.3066 -0.1368  0.1251
    1W        W41800   3.832  29.695   3.459 -0.1240 -0.3090 -0.1926
    1W        W41801   6.886  27.037   9.136  0.0460  0.0874  0.1510
    1W        W41802   9.392   6.963   1.308 -0.1201 -0.4485 -0.0026
    1W        W41803   1.774  26.403   2.389  0.3192  0.0065 -0.1956
    1W        W41804   3.689  11.756   7.346 -0.3896  0.0751  0.0588
    1W        W41805  10.723  25.959   2.407  0.0632 -0.1634  0.0138
    1W        W41806   4.969  13.795   6.634  0.1258  0.0176  0.3559
    1W        W41807  12.628   9.541   2.423 -0.1626  0.1993  0.1199
    1W        W41808  28.743  18.914   8.662 -0.1298 -0.0131 -0.0096
    1W        W41809   1.620   2.263   1.528  0.3485  0.0026 -0.0543
    1W        W41810  26.659  23.067   2.365  0.0284  0.0221  0.0467
    1W        W41811   6.553   4.058   2.437 -0.2245  0.3517 -0.2722
    1W        W41812  14.527  18.043   0.519  0.3511 -0.1106 -0.0397
    1W        W41813  23.228   5.205   9.159  0.0980  0.0396 -0.1363
    1W        W41814  13.958  29.325   0.557  0.1263  0.1733  0.1094
    1W        W41815  11.277   4.178   2.245 -0.2950 -0.3509 -0.3961
    1W        W41816  24.113  22.921   2.816 -0.1284 -0.1116 -0.2723
    1W        W41817  20.622  11.568   0.994  0.0964 -0.0627  0.1674
    1W        W41818  13.633  27.123   1.816 -0.2001 -0.0761  0.0505
    1W        W41819  22.621  16.927   8.718 -0.0914  0.2521 -0.0060
    1W        W41820   7.297  14.515   1.428  0.0759 -0.4224  0.0368
    1W        W41821  13.948  18.184   0.566 -0.2377  0.3559 -0.1258
    1W        W41822  23.834  29.070   9.398  0.1740  0.0365  0.0657
    1W        W41823   7.786  20.734   1.657  0.0540  0.1406 -0.1213
    1W        W41824   5.307  14.285   9.080 -0.2339  0.0180 -0.1791
    1W        W41825   8.934  26.470   7.497 -0.3233  0.3033  0.1110
    1W        W41826  24.694  20.321   8.788  0.0372  0.1228  0.0900
    1W        W41827  18.844   8.008   9.268 -0.1059 -0.1729 -0.0238
    1W        W41828  14.328  25.031   2.435  0.0953 -0.1420  0.3028
    1W        W41829  22.524  28.445   9.325  0.1619 -0.1016  0.0137
    1W        W41830   4.025   6.219   0.085 -0.0540 -0.1188 -0.1274
    1W        W41831  25.884   4.436   1.916 -0.2082  0.2684  0.3097
    1W        W41832  18.157  13.415   2.171  0.2609  0.2113 -0.0788
    1W        W41833  20.203  28.053   9.298  0.1660 -0.1608 -0.0889
    1W        W41834   0.249   2.387   9.033  0.0322 -0.1017 -0.0120
    1W        W41835  25.148  21.052   0.043 -0.1334  0.1173 -0.1054
    1W        W41836  22.199  15.799   7.706 -0.1737 -0.0390  0.2566
    1W        W41837   0.462  14.142   0.626  0.0717  0.0519  0.0949
    1W        W41838   4.151  22.734   0.821 -0.0934 -0.1623  0.0127
    1W        W41839  28.973  22.965   8.871 -0.1540 -0.2740 -0.4522
    1W        W41840   0.963  14.948   9.107  0.0340  0.1427 -0.2122
    1W        W41841  21.960   1.987   8.845 -0.1127 -0.0109  0.1919
    1W        W41842   7.784  22.191   7.106  0.1002  0.0631  0.1599
    1W        W41843   6.400   8.219   2.367  0.3139 -0.2517  0.0023
    1W        W41844  26.303   7.548   2.271 -0.2423 -0.0660  0.2552
    1W        W41845   0.542  11.784   7.854  0.0717  0.3237  0.3183
    1W        W41846  17.915  24.525   7.466  0.2550  0.0198  0.1237
    1W        W41847   3.720  16.457   9.212 -0.2681  0.1179  0.1997
    1W        W41848   2.991  27.707   6.931 -0.2368 -0.2735 -0.3279
    1W        W41849  14.191   4.596   2.898 -0.0928  0.4137  0.0798
    1W        W41850   0.664   3.212   1.455 -0.1420 -0.1189 -0.0677
    1W        W41851   8.648  14.677   1.832  0.3082  0.2796 -0.1583
    1W        W41852   4.154  17.426   7.188  0.0547  0.2027 -0.0185
    1W        W41853   3.509  16.217   0.236  0.1009  0.1632 -0.2960
    1W        W41854   3.825  19.756   8.138  0.0506 -0.0105  0.1686
    1W        W41855  26.241  12.656   2.233  0.1777 -0.0140  0.0732
    1W        W41856  25.745  16.487   8.530  0.0996  0.1340 -0.2307
    1W        W41857  21.857  13.059   1.552 -0.0981  0.0007  0.1537
    1W        W41858  17.059  25.641   9.187  0.3012  0.1293 -0.2337
    1W        W41859  10.214  28.942   8.554 -0.0295 -0.0790  0.0996
    1W        W41860  23.895  16.096   8.007 -0.0041 -0.1284  0.0666
    1W        W41861  28.020   9.228   6.805 -0.0578  0.2170  0.1475
    1W        W41862  15.125   1.460   9.394 -0.1312  0.4242 -0.0876
    1W        W41863  16.318  29.639   3.199  0.1250 -0.4664  0.0083
    1W        W41864  11.294   1.824   8.677 -0.1557 -0.1876  0.3289
    1W        W41865  24.964  20.693   6.177  0.0005  0.2155 -0.0728
    1W        W41866  11.829  13.520   2.572  0.0593  0.1399  0.0930
    1W        W41867   0.575   8.545   7.048  0.2646 -0.3774 -0.2710
    1W        W41868  21.887   6.054   2.576 -0.2813 -0.0330 -0.3289
    1W        W41869   8.670   3.692   0.911  0.1402  0.1701  0.0923
    1W        W41870  10.739  18.589   0.447  0.0702  0.1540 -0.0386
    1W        W41871  12.278  27.394   0.096 -0.0795 -0.2159 -0.0274
    1W        W41872  29.607   1.088   6.884  0.2300  0.2584 -0.0292
    1W        W41873  13.642  14.882   1.707  0.0396  0.3633  0.0069
    1W        W41874  12.872  28.503   3.154  0.0141 -0.0032  0.0932
    1W        W41875   3.630  20.552   0.375  0.0115 -0.1204 -0.1085
    1W        W41876  21.644  29.463   2.745  0.0167  0.1145 -0.0882
    1W        W41877  13.673  10.445   1.612  0.0851 -0.0207 -0.2174
    1W        W41878  20.298   2.661   8.109 -0.2623 -0.2367  0.1652
    1W        W41879  20.192  25.101   8.068  0.1287  0.2388 -0.2792
    1W        W41880  15.308  13.706   7.296 -0.0930  0.0128 -0.0821
    1W        W41881  27.250  26.270   7.320  0.2171  0.1430 -0.1831
    1W        W41882   2.542  14.406   0.663 -0.0160  0.1682  0.1096
    1W        W41883   2.043  27.439   8.055  0.0050  0.3073 -0.4649
    1W        W41884  24.353  21.214   8.736 -0.1823 -0.4140  0.0865
    1W        W41885   5.940  15.234   8.327  0.1638 -0.1801 -0.1581
    1W        W41886   1.263  20.598   9.136 -0.1120  0.0047  0.2897
    1W        W41887   5.561   2.006   8.290 -0.0285 -0.1990  0.0345
    1W        W41888   8.165   7.190   2.763  0.0389  0.0064 -0.1054
    1W        W41889  22.576  22.897   0.495 -0.1183 -0.0876 -0.1480
    1W        W41890   5.500  11.008   0.554  0.2355  0.1008 -0.2477
    1W        W41891   9.166  15.053   9.123 -0.0797 -0.0481 -0.1341
    1W        W41892   0.350   2.624   2.779  0.1677 -0.0754 -0.0146
    1W        W41893  13.088   6.541   3.187  0.3195  0.2057 -0.1280
    1W        W41894  22.368   7.268   3.543 -0.0870  0.1905  0.4418
    1W        W41895  28.075  28.831   9.001  0.2242 -0.1525 -0.1332
    1W        W41896  19.087  28.095   6.598  0.0807 -0.3664  0.1655
    1W        W41897  15.587  11.426   7.848  0.0257  0.1695 -0.0668
    1W        W41898  25.449  12.694   0.638 -0.0164 -0.1411  0.1112
    1W        W41899  28.008  26.143   7.824 -0.0761 -0.0882 -0.1029
    1W        W41900   3.481  30.013   3.535 -0.3545  0.1443 -0.0621
    1W        W41901   4.096  21.799   7.419 -0.1318 -0.1307  0.2358
    1W        W41902  19.539  12.293   0.460 -0.0836 -0.1230 -0.0957
    1W        W41903  16.838   6.227   3.322 -0.0739 -0.0608  0.0459
    1W        W41904  26.626   3.615   9.154 -0.3091  0.1425  0.1989
    1W        W41905  23.913  26.614   7.282  0.2988  0.2512  0.2504
    1W        W41906  23.200   0.005   1.553  0.2261 -0.2109 -0.0208
    1W        W41907  14.206   6.561   2.594  0.0422  0.0915  0.1109
    1W        W41908   4.978   1.475   1.340  0.0577 -0.2260  0.2251
    1W        W41909  10.917  10.574   1.017  0.2441 -0.0602 -0.1429
    1W        W41910  12.264   0.095   0.811  0.2226  0.2604  0.2292
    1W        W41911  18.852   3.926   2.440  0.0901 -0.2096  0.1170
    1W        W41912  11.003  25.618   7.691 -0.0543  0.3334  0.0485
    1W        W41913  21.489   7.720   9.231 -0.0308  0.0204  0.2118
    1W        W41914  21.941   7.745   8.026  0.1499  0.1450 -0.2476
    1W        W41915  24.518  25.102   0.328 -0.2659 -0.0593 -0.2694
    1W        W41916  29.580  26.313   1.436  0.2471 -0.0549 -0.3813
    1W        W41917  17.130  15.114   7.275  0.2995 -0.1284 -0.2816
    1W        W41918   2.846  27.062   9.255  0.0143  0.2589  0.0786
    1W        W41919  25.149  25.470   8.516 -0.0538  0.1375 -0.0391
    1W        W41920  11.479  20.418   7.576 -0.1355 -0.0720  0.1616
    1W        W41921  15.367  20.531   1.882  0.2954  0.2881 -0.0033
    1W        W41922  29.926   0.008   7.671  0.0215  0.0245 -0.0526
    1W        W41923  15.312   3.733   3.049  0.1005  0.1931 -0.0183
    1W        W41924  14.359   6.322   8.172  0.2223  0.2060 -0.3285
    1W        W41925   6.079  10.307   6.719  0.0056 -0.1217 -0.1919
    1W        W41926  25.248  28.876   2.806 -0.4477  0.1308  0.0335
    1W        W41927  25.605  14.934   9.367  0.0003  0.1613 -0.0346
    1W        W41928  11.929   7.667   2.561 -0.0576 -0.0992  0.1111
    1W        W41929  29.792   5.280   1.406  0.0598  0.2084 -0.0940
    1W        W41930  27.583  11.284   0.231  0.3867  0.4512 -0.0919
    1W        W41931  24.573  12.800   7.683  0.0337 -0.0157  0.0653
    1W        W41932   6.485   1.858   0.838  0.3571  0.1006 -0.2758
    1W        W41933   8.400  23.999   0.611 -0.3531  0.0133  0.2437
    1W        W41934  19.462  28.501   6.657  0.2307 -0.0937 -0.1711
    1W        W41935  23.680  28.640   7.569  0.0586 -0.0639  0.1388
    1W        W41936  27.938  22.021   2.546  0.1882 -0.1454  0.1572
    1W        W41937  21.276  24.990   2.586 -0.2767  0.2115  0.0325
    1W        W41938   7.132  10.422   0.846 -0.2732 -0.0748 -0.2324
    1W        W41939   6.646   3.025   3.246 -0.0632 -0.1226 -0.1464
    1W        W41940  11.159  25.248   0.057  0.0486  0.2337  0.1929
    1W        W41941  15.667  11.958   6.991  0.0756 -0.1187  0.2311
    1W        W41942  29.955  16.623   6.607 -0.0128 -0.1053 -0.0793
    1W        W41943  20.762  10.106   7.022 -0.2317  0.0989  0.4096
    1W        W41944  12.799   9.779   7.454  0.1387  0.0191 -0.0184
    1W        W41945   2.186   1.354   0.814  0.0080 -0.0255  0.2620
    1W        W41946  14.197   4.260   1.535  0.0690  0.0052  0.2487
    1W        W41947   0.401   6.044   7.285  0.1548 -0.1582 -0.1226
    1W        W41948  17.427  27.278   2.087  0.1935 -0.1020  0.0814
    1W        W41949  19.911   6.078   1.353 -0.2305  0.0575 -0.0578
    1W        W41950  10.140  16.885   7.425  0.3469 -0.2919  0.1844
    1W        W41951   8.114  26.140   0.617 -0.0909  0.1595  0.0616
    1W        W41952  21.029  23.068   0.184 -0.1863 -0.0810  0.1042
    1W        W41953  17.107  14.901   1.964 -0.3791  0.1670 -0.0287
    1W        W41954   4.144   5.772   0.559 -0.3364 -0.0389  0.2141
    1W        W41955  20.326  23.233   7.365 -0.1224  0.1151  0.3638
    1W        W41956  29.356   3.955   0.258  0.0353 -0.0840 -0.2911
    1W        W41957  15.082   0.026   9.326 -0.0598  0.2341  0.3767
    1W        W41958   8.484  17.687   2.325 -0.0625  0.2444 -0.1774
    1W        W41959  12.500  27.444   8.208 -0.1510 -0.0288 -0.0395
    1W        W41960  29.373   8.559   7.675  0.1657 -0.0597 -0.1566
    1W        W41961  23.591  25.039   7.331  0.1018 -0.1705  0.2020
    1W        W41962  21.881   5.842   1.279  0.2811 -0.3915 -0.0613
    1W        W41963  19.048  28.545   7.474  0.1114 -0.1411  0.1485
    1W        W41964   0.706   7.523   8.439  0.0103 -0.1911 -0.1197
    1W        W41965  12.701  16.023   2.537 -0.1585 -0.0121 -0.2072
    1W        W41966  25.376   1.602   6.571  0.0378  0.0428 -0.1229
    1W        W41967  20.874   2.633   2.951 -0.1659  0.0694 -0.2063
    1W        W41968   4.358  24.685   6.883  0.3166 -0.4243 -0.2987
    1W        W41969   6.970  26.431   6.344 -0.0501  0.2334  0.2212
    1W        W41970   4.891  22.915   9.353  0.0112  0.2404  0.0486
    1W        W41971   9.703  11.450   8.598 -0.1463 -0.2063 -0.1620
    1W        W41972   2.079  13.182   1.247 -0.0143  0.2742 -0.2305
    1W        W41973   3.485  21.288   8.296 -0.1944 -0.1923  0.1622
    1W        W41974  17.188  11.717   1.615  0.2033  0.1848  0.1480
    1W        W41975  17.491   7.572   0.893 -0.0454  0.0671  0.0097
    1W        W41976  28.850  16.121   0.085 -0.1035  0.0001  0.1169
    1W        W41977   5.633  20.181   2.247 -0.0683 -0.1360  0.1979
    1W        W41978  19.831   9.721   0.589 -0.1719  0.4315 -0.0240
    1W        W41979  11.812  26.037   8.010  0.3757 -0.1543 -0.0329
    1W        W41980  17.597  27.507   2.831 -0.1685 -0.1824  0.1739
    1W        W41981   6.545  27.755   8.797  0.0094  0.1602 -0.1109
    1W        W41982   3.896  11.385   8.172  0.2073  0.4712 -0.0630
    1W        W41983  27.368  21.626   0.151  0.0934 -0.3167  0.2812
    1W        W41984   1.801  14.088   5.644 -0.3150  0.0492 -0.1421
    1W        W41985  13.181   6.801   0.684  0.0849 -0.1055  0.1074
    1W        W41986  29.408  22.706   7.474  0.0357 -0.0136 -0.3232
    1W        W41987  14.999  26.432   9.244  0.0719 -0.1762  0.4637
    1W        W41988  29.993  28.182   8.244 -0.2046 -0.2775 -0.2151
    1W        W41989  24.700   5.066   1.722 -0.0579 -0.0507 -0.1162
    1W        W41990  20.529  27.843   2.914  0.1674  0.0616  0.1196
    1W        W41991   2.077   6.459   0.616 -0.1167 -0.1270  0.3411
    1W        W41992  18.486  28.428   8.826  0.0909 -0.0945  0.1020
    1W        W41993  25.240  26.374   9.396 -0.0370 -0.2175 -0.1669
    1W        W41994  11.835   3.686   0.256  0.1892  0.2528  0.2477
    1W        W41995   5.318  13.824   8.447 -0.1355  0.0418  0.3372
    1W        W41996  10.060  22.864   5.748  0.0678  0.3364  0.0992
    1W        W41997  28.360  25.746   8.459  0.0480 -0.0978  0.4617
    1W        W41998  19.293   6.232   7.698 -0.1781 -0.1810  0.4475
    1W        W41999  20.720  29.197   8.958  0.0705  0.1878  0.0678
    1W        W42000   8.581   6.758   7.454 -0.1763 -0.0814 -0.3179
    1W        W42001   2.682  27.609   8.854  0.1456  0.0531  0.1879
    1W        W42002  21.698  15.210   8.746  0.2462  0.0591 -0.1544
    1W        W42003   7.957   5.998   1.616 -0.1757  0.3258  0.0709
    1W        W42004  18.554  21.507   1.261  0.2110  0.2374  0.0491
    1W        W42005  28.961   0.602   8.214  0.4980 -0.1163  0.0679
    1W        W42006  16.218  21.475   7.257  0.0677 -0.0850  0.2474
    1W        W42007   1.042  29.185   8.282  0.0643 -0.1758  0.1513
    1W        W42008   1.121  15.081   8.029 -0.1639  0.0229  0.0032
    1W        W42009  11.597  27.002   0.321  0.0570  0.0458 -0.1227
    1W        W42010   0.403  18.389   5.460 -0.1384 -0.1109  0.1264
    1W        W42011   8.882  26.583   6.966 -0.0635 -0.1738 -0.0415
    1W        W42012   9.998   8.318   0.571 -0.3408  0.0388 -0.3118
    1W        W42013   2.792  17.421   9.156 -0.1358  0.1293  0.0334
    1W        W42014   9.470  19.630   2.185  0.1557  0.1505  0.0334
    1W        W42015  21.124   2.345   3.352 -0.2236 -0.1176 -0.1133
    1W        W42016   9.772   9.748   1.843 -0.3003  0.3061  0.1918
    1W        W42017   8.797   3.619   0.344  0.2901  0.1748 -0.0032
    1W        W42018  29.390  20.734   0.805 -0.3565  0.0231 -0.2469
    1W        W42019   8.236  11.410   0.027  0.1818  0.2235  0.1841
    1W        W42020  16.929  29.941   8.095 -0.1429  0.0148 -0.1134
    1W        W42021   5.390   0.402   3.412  0.0568 -0.4824 -0.1409
    1W        W42022  14.322  28.294   0.062  0.0712  0.0060 -0.1389
    1W        W42023  21.502   7.984   2.550  0.2592 -0.1495 -0.0894
    1W        W42024   9.231  10.184   8.379  0.0520 -0.0181 -0.0599
    1W        W42025  22.358  25.607   0.279  0.2726  0.1686  0.0367
    1W        W42026  18.989   9.048   0.723 -0.0243 -0.1105  0.3092
    1W        W42027  23.362  10.865   8.069 -0.1007  0.2144 -0.0341
    1W        W42028  12.707   0.284   8.380  0.0367 -0.3406 -0.0375
    1W        W42029  18.229   1.010   0.299  0.0769  0.0540 -0.1140
    1W        W42030  24.450   5.955   1.340  0.2248 -0.2171  0.0405
    1W        W42031   7.832  27.822   1.050 -0.1136  0.0533  0.1397
    1W        W42032  15.415  26.899   7.469  0.4581 -0.3136  0.2531
    1W        W42033  19.955  26.153   7.250 -0.1807 -0.1562 -0.1967
    1W        W42034  17.221  23.266   9.069  0.1021  0.2486  0.0638
    1W        W42035  16.584   6.629   4.055  0.0393  0.1063  0.1085
    1W        W42036  19.762   2.456   9.027  0.3742  0.1899  0.2401
    1W        W42037  25.825  15.811   9.127 -0.0687 -0.0924  0.1711
    1W        W42038  16.727  25.602   1.358  0.1186 -0.1031 -0.0304
    1W        W42039  29.825  20.857   1.002 -0.2500 -0.3724  0.0643
    1W        W42040   4.707  12.621   0.056 -0.0607 -0.0259  0.1929
    1W        W42041   4.713  23.843   9.235 -0.1336 -0.0075 -0.2365
    1W        W42042   3.920   9.930   0.179 -0.1230 -0.0825 -0.0906
    1W        W42043   2.173  22.996   0.296 -0.0429  0.0871  0.2070
    1W        W42044  11.554   4.872   8.827  0.2044  0.1788 -0.1384
    1W        W42045   9.014   4.392   1.827  0.0376  0.1666 -0.1821
    1W        W42046   4.519  13.807   2.089  0.2254 -0.0218 -0.2042
    1W        W42047  19.689  19.864   1.565  0.1459  0.1199  0.1847
    1W        W42048  12.735  18.326   1.112  0.3929  0.1766  0.1446
    1W        W42049   1.090  12.136   1.432  0.0782  0.3120 -0.1782
    1W        W42050  16.738   9.735   1.553  0.0944  0.1336  0.1765
    1W        W42051   8.275   8.480   1.147  0.2659 -0.1852 -0.3132
    1W        W42052  13.876  18.733   9.283 -0.0143 -0.2143  0.2585
    1W        W42053  13.188  26.619   3.499 -0.1339 -0.3356  0.0853
    1W        W42054  29.153  10.465   0.336  0.2327  0.2058 -0.0258
    1W        W42055   5.066  23.365   9.000  0.3012  0.3242 -0.0189
    1W        W42056  27.820  29.748   9.192 -0.0704  0.0638  0.0691
    1W        W42057  26.391  20.401   9.142  0.1318  0.0690 -0.1578
    1W        W42058  19.717  18.433   1.355  0.0147  0.1679 -0.1773
    1W        W42059  12.511   3.320   8.601  0.1879  0.1068 -0.1824
    1W        W42060   3.138  15.774   0.410  0.0404  0.2672 -0.2006
    1W        W42061   8.998  22.888   7.100 -0.1714  0.1635  0.1465
    1W        W42062  30.033  18.064   9.153 -0.1038 -0.1768  0.0493
    1W        W42063  15.621  26.363   7.434 -0.0847  0.2250 -0.1021
    1W        W42064   3.759   5.097   7.478 -0.1425  0.0183  0.1868
    1W        W42065  21.573  30.034   7.663  0.1794  0.1866  0.0164
    1W        W42066   7.515   6.160   8.455  0.3375  0.1409  0.1332
    1W        W42067  21.924   9.053   6.315 -0.2750 -0.0153 -0.0448
    1W        W42068   0.796  20.265   8.341 -0.0343  0.1305  0.2207
    1W        W42069  27.905  13.494   8.235  0.2149  0.3946  0.2660
    1W        W42070  29.316   2.224   7.397 -0.0883  0.0288  0.0863
    1W        W42071  24.737   7.938   9.111 -0.3530 -0.0820 -0.0556
    1W        W42072   4.524  30.019   9.399  0.1079  0.1932 -0.1517
    1W        W42073  14.628   9.413   0.698 -0.0836  0.0190  0.1389
    1W        W42074  20.699   6.968   0.255  0.0684 -0.1674  0.0403
    1W        W42075  25.966  11.035   0.901  0.2689 -0.0484  0.3004
    1W        W42076  28.218  25.891   6.019 -0.1312  0.1153 -0.0331
    1W        W42077  25.166  13.065   9.166  0.2212  0.7486 -0.1443
    1W        W42078   0.371  14.170   1.365  0.0467 -0.0192  0.1443
    1W        W42079  10.496   7.121   8.055 -0.1759 -0.0041  0.2071
    1W        W42080  19.340  21.364   8.002 -0.0774  0.3501 -0.3654
    1W        W42081  22.783  22.123   7.275 -0.0517 -0.2186  0.1078
    1W        W42082   5.800  23.370   0.811  0.1905  0.5228  0.3855
    1W        W42083  24.620   4.368   1.926  0.0547  0.0375 -0.1093
    1W        W42084  11.843  21.607   9.376 -0.2409  0.2607 -0.0201
    1W        W42085   5.371  25.377   8.632 -0.0067 -0.1153  0.1425
    1W        W42086  14.812  18.178   7.261  0.0022 -0.0174 -0.4387
    1W        W42087  11.444  25.362   7.557  0.0584  0.1505 -0.1552
    1W        W42088  27.085  25.479   8.615 -0.1958  0.0573 -0.1173
    1W        W42089  20.536   1.206   7.566 -0.0731 -0.0551 -0.2653
    1W        W42090   0.151   2.268   7.453 -0.1786  0.1886 -0.0459
    1W        W42091   9.727  19.558   1.607 -0.1251 -0.2599  0.0411
    1W        W42092   3.998  27.921   6.982  0.0541 -0.0946 -0.2196
    1W        W42093  24.086  19.409   6.759 -0.0358 -0.3657 -0.1117
    1W        W42094  18.378  13.060   0.808 -0.3306 -0.0259  0.1494
    1W        W42095  20.019   2.653   8.573  0.0759 -0.0553 -0.1726
    1W        W42096  29.526  10.899   7.319 -0.0237 -0.0168 -0.1593
    1W        W42097  18.823  11.209   1.096  0.0036 -0.1440 -0.1425
    1W        W42098   3.995  18.941   0.875 -0.0840 -0.5379 -0.0453
    1W        W42099  14.345  25.380   9.195  0.0077  0.2876  0.2257
    1W        W42100  28.631  21.591   8.798  0.2428  0.1031  0.0964
    1W        W42101   6.117  21.531   0.029 -0.0008  0.3355 -0.1278
    1W        W42102  23.784  25.618   7.581 -0.0847 -0.1207  0.1774
    1W        W42103  28.734  11.239   1.730 -0.0936  0.2294  0.0474
    1W        W42104   6.042  20.252   1.468 -0.0189 -0.0399 -0.0375
    1W        W42105  12.877   3.981   0.339  0.0019 -0.1570 -0.1403
    1W        W42106  21.608   7.554   1.855 -0.3299  0.3803 -0.3477
    1W        W42107  28.890  21.213   8.499 -0.0798 -0.0831 -0.1062
    1W        W42108  24.357   8.852   9.347 -0.5760 -0.0580  0.0749
    1W        W42109   5.062  19.734   8.970  0.0947 -0.0063 -0.2270
    1W        W42110  17.310   7.253   9.048  0.1063 -0.2196 -0.5155
    1W        W42111   1.350  21.257   6.195 -0.0226 -0.3369 -0.0810
    1W        W42112  22.513  20.511   7.777  0.2742  0.0658 -0.1140
    1W        W42113  27.817  19.291   1.569  0.2961 -0.1411 -0.1390
    1W        W42114   2.557  26.380   2.007  0.4206 -0.3964  0.0431
    1W        W42115  11.753  25.173   1.558 -0.1999  0.0479 -0.4812
    1W        W42116  16.083  12.567   0.190 -0.1030  0.3247 -0.0971
    1W        W42117   9.370  25.834   2.126 -0.0240 -0.2159  0.2956
    1W        W42118  15.138  29.930   7.580  0.2070  0.0865 -0.2046
    1W        W42119  15.229  17.176   9.160 -0.0971  0.1386 -0.1592
    1W        W42120  19.310   2.471   9.165  0.1173  0.3664 -0.1469
    1W        W42121  11.729  24.136   2.104 -0.1895 -0.0689 -0.1270
    1W        W42122  26.266   5.778   6.644 -0.0893  0.0068  0.1897
    1W        W42123  13.813  25.041   8.446  0.3971 -0.0699  0.3230
    1W        W42124   3.413   6.435   2.942  0.1364  0.0185  0.1509
    1W        W42125   5.593  12.990   8.550  0.3056  0.1792 -0.0824
    1W        W42126  24.624  15.956   6.863  0.1913  0.0951  0.1872
    1W        W42127  24.726   8.754   7.412 -0.1395  0.0968 -0.0806
    1W        W42128   2.036  20.920   9.075 -0.0530 -0.1653 -0.1225
    1W        W42129   0.593  19.909   7.548  0.0317  0.0935  0.1389
    1W        W42130  18.830   3.539   1.922  0.1237 -0.1601 -0.0131
    1W        W42131  12.186  28.672   3.608 -0.4266 -0.3614  0.2072
    1W        W42132  18.061  26.621   1.176  0.0406  0.1987  0.0307
    1W        W42133  15.967  27.242   7.765 -0.3695  0.1958 -0.0229
    1W        W42134  25.754  28.798   9.054 -0.2019  0.0413  0.2490
    1W        W42135   1.424  12.134   8.764  0.2008  0.3493  0.0748
    1W        W42136  10.006  27.618   6.993  0.2490 -0.0516 -0.0638
    1W        W42137   1.208   8.710   9.359  0.1322 -0.0477 -0.0486
    1W        W42138   2.700  25.917   2.480 -0.0678  0.4608 -0.0930
    1W        W42139  29.444  30.030   7.685 -0.3576  0.0956  0.2619
    1W        W42140   5.912  14.419   2.061 -0.1489 -0.2961  0.0329
    1W        W42141   1.148   9.351   7.939 -0.1090 -0.0702  0.2692
    1W        W42142   0.114   8.520   7.442  0.4152  0.0549  0.1366
    1W        W42143  26.385  15.306   1.739  0.0844 -0.1376  0.0761
    1W        W42144  11.030  27.979   8.884 -0.2722  0.1023 -0.1611
    1W        W42145  29.020   6.209   0.385  0.1812  0.1800  0.0980
    1W        W42146  30.121  16.926   7.536 -0.1288  0.2240 -0.1582
    1W        W42147  16.218  20.561   2.230  0.0046 -0.0903  0.2282
    1W        W42148   2.021  20.443   5.369  0.0558 -0.0246 -0.0481
    1W        W42149  16.833   1.697   8.150 -0.2937 -0.0290 -0.4144
    1W        W42150  13.306   2.477   8.389 -0.3271 -0.1684 -0.0921
    1W        W42151  29.827  18.653   9.132  0.1377  0.0978 -0.2252
    1W        W42152  21.906  19.115   9.118 -0.1527  0.0907 -0.0013
    1W        W42153   3.004  25.188   1.468  0.0784  0.0410  0.3049
    1W        W42154  28.860  29.392   7.461 -0.0400 -0.3817  0.0954
    1W        W42155  25.211  21.857   6.603 -0.0223 -0.2169 -0.0213
    1W        W42156  29.829   0.359   1.734 -0.1923  0.0139 -0.1036
    1W        W42157  25.811   0.182   8.895  0.2271  0.2099  0.1582
    1W        W42158  10.323  23.504   1.575  0.3273 -0.2083 -0.0278
    1W        W42159   0.542   1.171   7.457 -0.1055  0.2172 -0.1547
    1W        W42160  17.262  16.866   1.160  0.3516 -0.2350 -0.0908
    1W        W42161  23.150  26.788   0.466  0.0093  0.1169  0.0862
    1W        W42162   4.686   1.841   6.754  0.0035  0.1315  0.0408
    1W        W42163  27.390   2.182   7.807 -0.0266  0.1283 -0.0260
    1W        W42164  19.298  18.336   7.327  0.3515 -0.0122 -0.0107
    1W        W42165   3.284  29.855   0.002  0.1518  0.0702  0.2307
    1W        W42166  15.186  12.699   8.682  0.1075  0.2421  0.1261
    1W        W42167  29.693  14.064   5.641 -0.0190  0.3333 -0.0105
    1W        W42168  11.074   8.056   8.360 -0.0019  0.0061  0.0506
    1W        W42169  15.131  28.238   2.039  0.1836  0.0973 -0.1192
    1W        W42170  16.687  15.756   1.650 -0.2059 -0.3755 -0.0325
    1W        W42171  13.010   6.594   0.158 -0.1055 -0.4241  0.0130
    1W        W42172   6.942  21.192   8.294 -0.0674  0.1042  0.0056
    1W        W42173  29.783   3.559   7.366 -0.0533 -0.5281 -0.2209
    1W        W42174  16.902  12.755   7.005  0.2750  0.1425  0.0066
    1W        W42175   4.846  23.618   6.821 -0.3098 -0.0486  0.1500
    1W        W42176  11.316   8.570   9.246  0.0145  0.0529  0.1640
    1W        W42177  17.311  24.357   2.788  0.0747  0.0828  0.2334
    1W        W42178  11.857   2.976   1.817 -0.1017  0.0077 -0.1198
    1W        W42179  26.031  16.180   9.378  0.0436 -0.2207  0.0002
    1W        W42180  21.875   3.523   6.526 -0.1149 -0.0594 -0.0082
    1W        W42181   1.970  11.762   1.315  0.2787 -0.0352  0.0562
    1W        W42182   1.780   2.684   7.755  0.0092 -0.0898  0.0908
    1W        W42183   9.956   5.204   1.064 -0.0975  0.0461  0.1030
    1W        W42184   5.945  27.846   1.235 -0.0534 -0.2874 -0.0400
    1W        W42185  21.133   5.020   8.090 -0.0533  0.1782 -0.1363
    1W        W42186  23.318   4.246   8.645 -0.0935  0.2317  0.0305
    1W        W42187  29.558   6.886   9.323 -0.0583 -0.1885 -0.1673
    1W        W42188   8.679  10.279   8.234  0.0661  0.0511 -0.2968
    1W        W42189  17.114  17.851   8.054 -0.3017  0.1653 -0.1051
    1W        W42190  27.875  25.616   8.174  0.0934  0.1313  0.1361
    1W        W42191   1.732  12.197   9.203  0.0657 -0.1105  0.2795
    1W        W42192   8.121   5.233   0.498 -0.1491 -0.1602  0.2099
    1W        W42193   6.970  25.502   6.360 -0.0337 -0.3910  0.3334
    1W        W42194   5.570  12.336   1.789 -0.1514 -0.0272  0.0896
    1W        W42195  14.458   5.901   8.418 -0.0172 -0.0305 -0.1028
    1W        W42196  10.274  13.878   7.962  0.4303 -0.2728 -0.1035
    1W        W42197  16.988   6.594   2.987 -0.2195 -0.0077 -0.2089
    1W        W42198  13.702   0.749   0.878 -0.2034 -0.1609 -0.2419
    1W        W42199  16.943   5.522   8.463 -0.3068 -0.0082  0.0749
    1W        W42200   4.669  29.489   0.338  0.3849 -0.1747  0.2539
    1W        W42201  11.178  16.637   1.023 -0.0961  0.0898  0.2522
    1W        W42202  16.463  21.018   1.545 -0.0267  0.0904  0.1194
    1W        W42203  20.389  22.560   1.494  0.0975  0.0464 -0.1568
    1W        W42204  28.851  25.203   9.137 -0.0927 -0.2881 -0.0046
    1W        W42205   7.834  18.739   5.984 -0.0071 -0.0648  0.1273
    1W        W42206  21.420  28.729   6.754 -0.0589 -0.0564  0.0141
    1W        W42207  14.573   1.410   1.783 -0.0752 -0.1182 -0.2645
    1W        W42208  28.522   1.745   7.827 -0.1373  0.1749  0.2348
    1W        W42209  15.975  21.977   9.263 -0.1373 -0.2063 -0.0076
    1W        W42210  14.682  22.351   0.859 -0.0345  0.1367  0.1838
    1W        W42211  24.907  11.470   0.219  0.0343 -0.0665  0.2422
    1W        W42212  15.272   8.320   7.218  0.2629 -0.2221  0.4535
    1W        W42213  16.568  17.043   8.793 -0.1575  0.3229  0.2492
    1W        W42214  29.170  13.988   1.031  0.2121 -0.4488 -0.0721
    1W        W42215  14.730  24.703   1.488 -0.1568 -0.0785  0.0040
    1W        W42216  13.988   8.128   0.395  0.0814 -0.3967  0.0956
    1W        W42217  10.309  13.981   1.422 -0.0934 -0.2955 -0.0408
    1W        W42218  25.161   0.801   7.995  0.0189 -0.1834  0.0785
    1W        W42219  14.757  20.555   1.181 -0.0605  0.0752  0.1143
    1W        W42220  16.579   0.040   2.349  0.1588  0.1809  0.1550
    1W        W42221  18.743  22.803   2.912 -0.0652  0.0996 -0.2556
    1W        W42222  27.900  10.229   1.681 -0.0106  0.3798 -0.1286
    1W        W42223  10.787  22.947   7.072  0.3357  0.0434  0.0571
    1W        W42224  21.072  21.822   1.345  0.0727  0.2721  0.2654
    1W        W42225  26.296  20.993   0.637 -0.2130 -0.1328  0.2571
    1W        W42226   4.350  20.093   5.850 -0.0030  0.0543 -0.1281
    1W        W42227   2.671   3.516   8.223  0.0371 -0.2631 -0.0257
    1W        W42228  24.565  24.534   7.246  0.1297  0.2073  0.0764
    1W        W42229  19.195  20.409   1.087  0.0919  0.1840 -0.4679
    1W        W42230   2.158  26.621   7.390 -0.0197  0.1488 -0.1123
    1W        W42231   5.949  16.625   0.873  0.0302 -0.3424  0.3060
    1W        W42232  26.557  12.006   5.925  0.1108 -0.0463 -0.0126
    1W        W42233  14.061  17.749   0.400  0.1540  0.0445  0.1881
    1W        W42234  26.037  24.279   1.911  0.2091 -0.0539 -0.1265
    1W        W42235  18.935  17.683   6.540 -0.1601 -0.0406  0.0878
    1W        W42236  28.804  28.643   2.282 -0.0480  0.1701 -0.2020
    1W        W42237   6.066   2.185   0.131  0.1844 -0.5876  0.2521
    1W        W42238  16.368   7.274   8.608 -0.1078 -0.1010  0.0530
    1W        W42239   2.608  11.222   0.075  0.0029 -0.0509  0.3387
    1W        W42240  18.395  11.501   1.888 -0.3879  0.0992  0.0801
    1W        W42241  29.403  14.536   0.905  0.1383 -0.1079 -0.2182
    1W        W42242  27.939   0.024   1.160 -0.0934 -0.1803  0.0794
    1W        W42243  28.342  20.245   8.137  0.2733 -0.0143 -0.0126
    1W        W42244  22.781   3.878   8.319 -0.2026  0.1348  0.1216
    1W        W42245   2.798  27.855   1.830 -0.0796  0.3358 -0.1049
    1W        W42246  27.663   7.993   2.029  0.2729  0.0266 -0.0206
    1W        W42247  21.097  22.229   5.859  0.2710  0.1837  0.2246
    1W        W42248  22.215   4.887   3.318  0.0728 -0.1667 -0.0019
    1W        W42249   1.538   4.312   1.744  0.1752 -0.0853 -0.0431
    1W        W42250  28.728   7.649   0.041  0.1226  0.0417  0.2656
    1W        W42251   2.793  12.101   8.983  0.0213 -0.1618  0.0519
    1W        W42252  19.123  29.053   7.358 -0.3684  0.0587 -0.0575
    1W        W42253  27.774  29.587   7.454 -0.0353 -0.2219  0.1497
    1W        W42254   1.810  11.401   5.967  0.1493 -0.0895  0.3047
    1W        W42255   8.422   3.711   8.860 -0.1024 -0.2249  0.4960
    1W        W42256  24.730  25.999   0.290 -0.2165 -0.2884  0.0360
    1W        W42257  28.704   2.355   1.457  0.1049  0.3183 -0.2617
    1W        W42258  19.725   1.727   1.610  0.2489  0.1960 -0.2169
    1W        W42259  23.769   3.328   7.682 -0.2654 -0.3119 -0.1072
    1W        W42260  24.446  17.587   7.929  0.2393  0.1964 -0.0795
    1W        W42261  25.331  24.304   6.276  0.0632  0.0720  0.0794
    1W        W42262  24.176  16.487   8.032 -0.0365  0.3812  0.1429
    1W        W42263  12.073  25.230   8.798  0.5690  0.5375  0.1069
    1W        W42264  13.428   6.530   9.298  0.3260 -0.0172  0.1464
    1W        W42265  19.582  25.231   3.250 -0.3393 -0.2227  0.1442
    1W        W42266  12.876  12.681   7.477 -0.0521  0.2170 -0.0258
    1W        W42267  15.879  28.837   8.199  0.2336 -0.3005  0.0430
    1W        W42268   1.553  12.694   1.678 -0.1511  0.1241 -0.1795
    1W        W42269  27.892   1.480   2.034  0.0266 -0.1271  0.1154
    1W        W42270  12.524  29.496   8.510 -0.0796  0.2629 -0.2818
    1W        W42271   1.928   1.328   1.243  0.1990  0.3171  0.1588
    1W        W42272  18.350   2.256   2.865  0.2583 -0.0943 -0.1888
    1W        W42273   5.024  20.081   7.264  0.0313 -0.1796  0.0844
    1W        W42274   5.365   3.302   2.695  0.1442 -0.0135  0.0103
    1W        W42275   3.701  27.678   7.357 -0.0428  0.0081  0.0465
    1W        W42276  28.137  10.157   7.849  0.0876 -0.1530 -0.1776
    1W        W42277  10.843  20.112   6.489  0.3289 -0.0490 -0.2676
    1W        W42278  19.366  27.719   7.387  0.2754  0.0851 -0.2118
    1W        W42279  15.802  25.523   0.080  0.0270  0.1881  0.1481
    1W        W42280  25.966   8.316   7.484  0.0102 -0.1262 -0.0025
    1W        W42281  23.857  10.139   1.404 -0.0636  0.0025  0.1442
    1W        W42282  19.099  29.933   6.675  0.2433 -0.2027  0.2252
    1W        W42283  10.911   5.417   2.295  0.0302  0.1558 -0.2385
    1W        W42284   3.574   6.888   1.516 -0.0347  0.0295 -0.2440
    1W        W42285  28.362  12.976   1.026  0.2324 -0.0724  0.0065
    1W        W42286  18.270  28.970   8.899 -0.0717 -0.3161 -0.1291
    1W        W42287  18.453  29.070   1.498  0.1512 -0.1753  0.0049
    1W        W42288  20.998   4.038   8.059 -0.0103 -0.1104 -0.0040
    1W        W42289   8.665  15.952   8.478  0.0858  0.0333  0.0719
    1W        W42290  16.695  23.536   8.946  0.0182  0.2821 -0.0401
    1W        W42291   0.613  12.209   1.725  0.2442 -0.1081  0.0901
    1W        W42292  15.721  19.832   0.922  0.1107  0.1031 -0.0649
    1W        W42293  22.643  15.314   8.442 -0.1703  0.4086  0.0710
    1W        W42294  24.136  29.054   8.910  0.2396  0.0166  0.0531
    1W        W42295  20.666   6.891   6.957  0.0352 -0.2082  0.2126
    1W        W42296  13.235  22.664   8.335 -0.0183 -0.4474  0.1580
    1W        W42297   9.440   6.166   8.475 -0.1012 -0.0872 -0.2619
    1W        W42298  30.112  25.761   8.605 -0.0311  0.1410 -0.0069
    1W        W42299   1.398  15.264   8.953  0.2512  0.4307 -0.3819
    1W        W42300  16.926   2.193   8.842 -0.0321  0.1275 -0.2353
    1W        W42301  19.447   1.230   2.736 -0.1047  0.2340  0.0830
    1W        W42302   1.861   1.936   2.938 -0.1175 -0.2150 -0.0768
    1W        W42303  11.268   2.522   0.420  0.2059 -0.0595 -0.0663
    1W        W42304  18.128   2.817   7.322 -0.2995 -0.6230 -0.1277
    1W        W42305   5.039  11.128   0.469  0.0355 -0.1083  0.2635
    1W        W42306   0.485  11.882   8.798 -0.2360  0.1093  0.0924
    1W        W42307  15.654   9.495   1.432 -0.0006 -0.2232 -0.1861
    1W        W42308  25.032   4.215   9.253  0.0319  0.2599  0.0037
    1W        W42309  29.208  15.119   5.813  0.0820 -0.1347  0.0998
    1W        W42310  17.364  29.001   9.108 -0.1171  0.3128  0.0102
    1W        W42311   5.996  28.081   2.306  0.2997  0.0056  0.0728
    1W        W42312   8.371  29.060   2.399  0.1973 -0.2503  0.2575
    1W        W42313  11.093  12.912   0.544  0.0182  0.1506  0.0292
    1W        W42314   1.962  15.307   9.070 -0.1624 -0.1268  0.1436
    1W        W42315   4.770  11.174   7.514  0.1365 -0.0671 -0.0130
    1W        W42316  13.069   0.353   3.278  0.0763 -0.0974  0.0810
    1W        W42317   1.679   3.090   6.792  0.1142  0.0927 -0.3432
    1W        W42318  22.980  29.735   1.967 -0.2439 -0.0727 -0.2342
    1W        W42319   7.538  17.564   8.624  0.0082 -0.3679 -0.2424
    1W        W42320  23.062  21.814   1.222  0.1194  0.0438  0.2060
    1W        W42321  24.836   8.245   0.574  0.1526  0.1060  0.2167
    1W        W42322  19.026  12.911   7.707  0.0179  0.0924  0.0318
    1W        W42323   0.452  14.972   1.220 -0.1309 -0.2370 -0.1569
    1W        W42324  10.652   5.882   2.607 -0.3029  0.2822  0.2651
    1W        W42325   8.038   0.534   2.539 -0.1270 -0.1555 -0.2603
    1W        W42326  11.707  14.503   2.531 -0.4437 -0.0454 -0.2032
    1W        W42327  15.681  22.732   7.129  0.1457 -0.2251 -0.0362
    1W        W42328  17.628   1.422   2.070 -0.0564 -0.0929 -0.4072
    1W        W42329  22.118  28.919   1.013 -0.0969 -0.2195 -0.0088
    1W        W42330  21.534   5.257   0.221  0.0583  0.0444  0.0917
    1W        W42331  16.924  11.321   7.930  0.0108  0.2841  0.0694
    1W        W42332  17.656   7.082   1.133 -0.1507  0.1358 -0.1473
    1W        W42333  22.216   6.574   0.466  0.1667 -0.0603 -0.2168
    1W        W42334  16.317   1.684   0.701 -0.2377  0.0415 -0.4463
    1W        W42335  27.355   8.952   0.790 -0.5640  0.0023  0.0313
    1W        W42336   0.353   6.875   6.059  0.1706  0.2816 -0.1505
    1W        W42337  20.474  19.640   7.127  0.0141  0.2057 -0.1461
    1W        W42338  25.229   5.130   2.252 -0.1022  0.0008 -0.0008
    1W        W42339  10.561  27.846   1.241  0.1685 -0.1476 -0.0305
    1W        W42340  18.518  13.742   7.013  0.1941 -0.2093  0.2101
    1W        W42341  20.023   9.996   2.892 -0.4127 -0.0955 -0.2233
    1W        W42342  22.857  21.392   6.024 -0.1183  0.0215  0.2318
    1W        W42343  22.529  16.277   8.355 -0.1665  0.0619 -0.1000
    1W        W42344  12.931  10.937   0.698  0.2992 -0.1974  0.1291
    1W        W42345   2.431   9.232   1.884 -0.0917  0.0931 -0.2411
    1W        W42346  10.544   8.773   2.435  0.0216 -0.0596  0.0084
    1W        W42347  23.183  15.796   0.108 -0.1445  0.2262 -0.1118
    1W        W42348   2.278  27.781   3.653 -0.0729 -0.1892  0.0075
    1W        W42349   6.968  23.983   0.706  0.2203 -0.0075  0.0453
    1W        W42350  27.268  22.247   6.878 -0.1283  0.2210 -0.1650
    1W        W42351  23.822  23.842   1.443 -0.0935 -0.1667 -0.3764
    1W        W42352  17.019  15.642   1.284  0.0214 -0.1292 -0.0986
    1W        W42353  13.927  19.184   0.251  0.5974 -0.1424 -0.1659
    1W        W42354  28.316   0.667   9.339 -0.1850  0.3279  0.3389
    1W        W42355  24.204  26.979   7.339 -0.0295  0.0251 -0.0786
    1W        W42356   7.154  20.773   8.427 -0.1615 -0.0014 -0.0631
    1W        W42357  10.222  26.204   1.137  0.0335  0.0392  0.0076
    1W        W42358  11.906   6.182   1.169 -0.0386  0.1903  0.2461
    1W        W42359  16.756  14.249   0.840  0.1195 -0.2984  0.3209
    1W        W42360   1.468  17.028   0.989  0.0218 -0.0501 -0.1789
    1W        W42361  13.837  20.720   7.209  0.0278 -0.2588 -0.1544
    1W        W42362  20.912  19.383   7.380 -0.1717 -0.3968 -0.2707
    1W        W42363  27.561  29.663   2.441  0.1382  0.0050  0.3623
    1W        W42364  16.912  27.350   2.032 -0.1457  0.0661  0.1519
    1W        W42365   8.117  26.755   1.260 -0.0420  0.1775 -0.1082
    1W        W42366  24.094   6.648   1.980 -0.2976 -0.1654 -0.0095
    1W        W42367   2.049   3.104   0.780 -0.1874 -0.1405 -0.1706
    1W        W42368  29.899  17.447   1.271 -0.2940  0.0406  0.1813
    1W        W42369  22.097   9.645   6.965  0.0845  0.0401 -0.0350
    1W        W42370  26.231  21.741   1.243 -0.0714 -0.0103  0.1351
    1W        W42371  18.906  28.620   1.085  0.0961  0.1707 -0.2280
    1W        W42372  14.913   4.277   8.911 -0.0214  0.0223  0.0939
    1W        W42373  21.997   6.508   9.361 -0.0072  0.2660  0.1889
    1W        W42374  18.228  25.585   8.350 -0.2077 -0.0095 -0.0069
    1W        W42375   8.838  23.902   1.253  0.1136  0.0802  0.1203
    1W        W42376   0.299  25.118   9.268  0.1120  0.2949 -0.0784
    1W        W42377  21.807   0.037   9.100 -0.2018  0.2731  0.2216
    1W        W42378   1.183  16.238   9.244 -0.0293  0.0274 -0.1471
    1W        W42379  10.377  26.204   8.903 -0.1874 -0.1588 -0.1464
    1W        W42380  27.527   8.946   8.710  0.1558  0.2271 -0.1844
    1W        W42381  20.689   9.553   0.187  0.3036 -0.0625  0.0474
    1W        W42382   3.052   9.470   9.391 -0.0873  0.0361 -0.1449
    1W        W42383  29.671  22.221   7.399  0.0726  0.0080 -0.1482
    1W        W42384  16.154   1.436   7.663  0.0042 -0.0491 -0.1879
    1W        W42385  27.730  26.599   0.683  0.1203  0.1167 -0.1489
    1W        W42386   3.822  18.458   0.362  0.0874 -0.1881 -0.2034
    1W        W42387   0.692  11.365   7.610 -0.2300  0.0771  0.0491
    1W        W42388   8.773   5.771   8.768  0.1785 -0.2181  0.2883
    1W        W42389  26.215   9.661   6.265 -0.1862  0.0772  0.1984
    1W        W42390  17.424  13.641   0.530  0.0475 -0.2915 -0.0841
    1W        W42391   7.382   4.610   9.189  0.1989  0.1697  0.1748
    1W        W42392   1.340  29.616   3.046  0.0148 -0.1554  0.1508
    1W        W42393  15.950   5.790   2.755  0.0748 -0.0428  0.3136
    1W        W42394   1.385  21.817   0.054  0.0870  0.2065  0.1317
    1W        W42395  22.450   7.190   6.630  0.1145 -0.0792 -0.3322
    1W        W42396  11.425  23.290   1.062  0.1080 -0.2257 -0.1573
    1W        W42397   3.038  21.944   6.710 -0.2470  0.1323 -0.0115
    1W        W42398   5.929  18.902   7.678  0.1973  0.0115 -0.0578
    1W        W42399   3.974  10.623   9.099 -0.0434  0.0246 -0.0644
    1W        W42400   9.125   8.502   7.859 -0.1213  0.2404  0.0497
    1W        W42401   1.995   1.681   3.372 -0.0495 -0.0371 -0.0840
    1W        W42402   5.862  21.881   0.999 -0.3922 -0.1777  0.1366
    1W        W42403  15.436   5.095   2.641 -0.4013  0.0452  0.0296
    1W        W42404  12.565  10.690   9.317  0.0166 -0.0503  0.0851
    1W        W42405  23.142  20.820   7.533  0.2275  0.2151  0.1657
    1W        W42406  20.584  14.439   7.421  0.2086  0.1712 -0.2130
    1W        W42407   9.298  23.130   6.751 -0.0026  0.0079 -0.1570
    1W        W42408  15.727  14.899   7.004 -0.1391  0.1910 -0.0369
    1W        W42409  10.987  20.745   9.361  0.0858  0.0992 -0.0246
    1W        W42410  24.294  10.114   0.355 -0.1538  0.1009  0.0395
    1W        W42411  17.667   1.752   8.634 -0.0366  0.0658  0.2075
    1W        W42412   9.132  19.149   2.248  0.0345  0.1439 -0.0347
    1W        W42413  25.966   5.860   6.255 -0.0545  0.3060 -0.0028
    1W        W42414  25.689  16.034   7.686 -0.2963  0.0051  0.1148
    1W        W42415  24.074   2.193   1.695 -0.0783 -0.0856 -0.0960
    1W        W42416   1.563  16.696   0.630  0.0490 -0.2054 -0.0496
    1W        W42417   9.631  30.099   3.381  0.2464  0.5080 -0.1296
    1W        W42418  20.916   5.394   6.551 -0.3232  0.0244  0.1698
    1W        W42419   4.404   9.758   1.087  0.1116  0.1860  0.0896
    1W        W42420   1.140   3.116   8.152  0.0186 -0.3051  0.0151
    1W        W42421  27.266  28.128   7.391  0.1594 -0.0587 -0.3386
    1W        W42422   0.101  19.846   7.205  0.1672  0.0652  0.0707
    1W        W42423   2.478   5.461   1.401  0.0590  0.1490 -0.0681
    1W        W42424  23.394  28.247   7.724  0.0845  0.2914  0.2366
    1W        W42425  20.989  18.068   8.720  0.4595  0.1698 -0.2203
    1W        W42426  17.139  10.082   2.321 -0.0348 -0.0607  0.0667
    1W        W42427   2.900  22.750   7.212  0.1856 -0.2621 -0.0118
    1W        W42428  24.957   3.595   2.712  0.0439 -0.2307 -0.0403
    1W        W42429  20.339  23.531   0.449 -0.2375 -0.1181 -0.0769
    1W        W42430   6.226  16.062   6.698 -0.2695 -0.0806  0.0129
    1W        W42431  21.566  23.026   7.638 -0.2903  0.1308  0.0747
    1W        W42432   0.402  20.720   7.717  0.0774  0.1249 -0.1908
    1W        W42433   4.217   0.929   0.874  0.0003 -0.1586 -0.0507
    1W        W42434   4.746  28.010   1.077  0.1543 -0.0724 -0.3296
    1W        W42435  24.620   7.899   3.050  0.0170  0.1146 -0.0388
    1W        W42436  27.495  25.784   8.534  0.3977 -0.1138  0.0934
    1W        W42437   7.224  24.368   0.968  0.0466 -0.1069  0.4491
    1W        W42438  25.379  10.837   2.091 -0.0888  0.3990  0.2593
    1W        W42439  22.213  18.039   7.206  0.1779  0.2819  0.1298
    1W        W42440  23.635   1.732   8.694 -0.2963 -0.2127  0.0076
    1W        W42441   1.885  18.222   7.706  0.0762 -0.1422 -0.1634
    1W        W42442  13.719  16.680   0.660  0.0007  0.1314  0.0417
    1W        W42443   4.744  23.578   8.644 -0.0671 -0.1272 -0.0701
    1W        W42444  29.063   4.004   2.058 -0.1730  0.0200  0.1049
    1W        W42445   5.944  24.767   0.687  0.4348  0.0726  0.0599
    1W        W42446   3.442  24.530   6.471 -0.2009 -0.0710  0.1112
    1W        W42447  16.792   9.142   0.186  0.1352  0.2295  0.3410
    1W        W42448   9.985   3.709   8.734  0.4226 -0.2382  0.0851
    1W        W42449   9.145  21.684   7.037  0.0272 -0.1536 -0.1150
    1W        W42450  27.493  28.347   7.816  0.0964  0.5146  0.2309
    1W        W42451  25.806   5.045   2.054  0.3502  0.4231  0.0405
    1W        W42452  19.750  24.181   0.324  0.2013 -0.2586  0.0800
    1W        W42453  20.105  21.370   9.029  0.0853 -0.0840 -0.1208
    1W        W42454  16.404  28.076   8.182  0.2525 -0.1999 -0.0480
    1W        W42455   8.229   1.487   7.506 -0.1258 -0.1435  0.0001
    1W        W42456  26.738  28.071   8.650 -0.0364 -0.2709  0.1059
    1W        W42457  15.248  11.972   8.586 -0.2742 -0.0501 -0.1637
    1W        W42458  16.475   2.990   1.004 -0.1108 -0.2362  0.0425
    1W        W42459   6.919  22.515   1.171 -0.0779  0.0538 -0.0211
    1W        W42460  26.549  20.637   2.268 -0.0075 -0.1540  0.0207
    1W        W42461  19.982  25.697   8.721 -0.1762 -0.1158 -0.2331
    1W        W42462  28.536  20.746   0.910  0.2300  0.0898  0.2655
    1W        W42463   3.740  21.189   5.470  0.2024 -0.0584  0.1547
    1W        W42464  25.562   4.051   1.671  0.0911 -0.0767 -0.0389
    1W        W42465  11.455  17.020   7.225 -0.1759 -0.0988 -0.1455
    1W        W42466  24.491   1.968   2.849 -0.1530 -0.0010  0.0048
    1W        W42467   3.402  15.940   5.576  0.2105  0.1367  0.1434
    1W        W42468  26.016  17.389   1.500  0.2451  0.0042  0.0709
    1W        W42469  29.459  29.418   7.440  0.1084 -0.0144 -0.1048
    1W        W42470   2.254  22.253   6.220 -0.1040  0.2830 -0.0777
    1W        W42471   8.095  12.282   0.420  0.0845 -0.3032 -0.1289
    1W        W42472  11.029  22.784   7.571  0.1316  0.0411  0.0240
    1W        W42473  17.498   4.045   8.946  0.1530 -0.1658 -0.1710
    1W        W42474   1.675  29.554   7.429  0.0493 -0.0275  0.0156
    1W        W42475   9.979   0.298   3.279 -0.1134 -0.0680  0.4468
    1W        W42476  23.057   0.971   3.266  0.0932 -0.0338 -0.2000
    1W        W42477   2.428  18.406   6.932 -0.1097  0.1754  0.0435
    1W        W42478  10.183  21.986   7.790  0.2885 -0.0291 -0.1178
    1W        W42479  27.069  26.507   7.705 -0.2559  0.0521  0.0401
    1W        W42480  17.542   5.795   9.109  0.0062  0.0525 -0.1984
    1W        W42481   1.708  28.061   9.191 -0.1658 -0.0674 -0.1792
    1W        W42482  21.199  14.413   6.589 -0.1729 -0.1939  0.2846
    1W        W42483  24.864  27.841   0.262 -0.2535  0.2910 -0.1486
    1W        W42484   2.393   0.640   0.815 -0.3183  0.3932  0.2430
    1W        W42485  18.803  27.594   1.929 -0.1331  0.3049 -0.1153
    1W        W42486   4.622  24.447   7.332  0.0220 -0.1875 -0.0936
    1W        W42487  18.664  25.549   3.409 -0.0743  0.3963  0.1798
    1W        W42488  11.598  22.604   1.606  0.0627 -0.2486  0.1893
    1W        W42489  13.325  27.562   8.713 -0.1217 -0.0032 -0.3097
    1W        W42490   2.307  18.858   1.165  0.0836  0.1045 -0.0895
    1W        W42491  19.265  18.508   7.821  0.1174 -0.1311  0.0720
    1W        W42492  20.963  27.169   1.736 -0.0535 -0.2077  0.1582
    1W        W42493  20.086   8.912   0.164  0.0204 -0.0106 -0.0543
    1W        W42494   7.630  24.954   8.553  0.0634 -0.0434  0.3048
    1W        W42495  23.021  25.084   1.889 -0.2692  0.0199 -0.1685
    1W        W42496  12.035   8.593   8.614 -0.0254  0.1631  0.1086
    1W        W42497  26.670  17.946   6.754 -0.2685  0.0303  0.5133
    1W        W42498  27.975   7.310   7.789 -0.2624  0.0868 -0.0324
    1W        W42499  14.326  24.958   8.413  0.1365 -0.2830  0.0874
    1W        W42500  17.428  25.888   8.482 -0.0169  0.0398 -0.0410
    1W        W42501  20.334   9.996   6.659 -0.0020  0.2225 -0.0775
    1W        W42502   6.621  12.612   0.319 -0.1060 -0.1319 -0.1635
    1W        W42503  20.932  28.119   8.123 -0.0829 -0.2410  0.0373
    1W        W42504  24.612  14.056   1.378  0.1815  0.0382 -0.2250
    1W        W42505  27.125   8.109   2.065 -0.0591  0.0619  0.3904
    1W        W42506   9.337   4.044   9.042  0.1700 -0.1034 -0.1645
    1W        W42507  25.703  18.709   7.445  0.1566 -0.2272 -0.0603
    1W        W42508  20.460  12.348   0.512 -0.0875  0.0582  0.1851
    1W        W42509  26.618   1.072   2.033  0.2606  0.0167  0.1003
    1W        W42510  10.439  27.229   7.495  0.0127 -0.2449 -0.3556
    1W        W42511  24.093  16.993   1.159 -0.0073 -0.1152 -0.1969
    1W        W42512  11.439  25.042   7.154 -0.2343  0.0111  0.3084
    1W        W42513   0.814   6.805   2.687 -0.3289  0.2245 -0.0912
    1W        W42514  24.102  12.782   7.021 -0.1569  0.1145  0.0862
    1W        W42515  17.544  27.751   7.715  0.1123  0.2039 -0.0007
    1W        W42516   4.119  25.513   1.111  0.0226  0.0161 -0.2247
    1W        W42517  13.401  30.122   3.115  0.0491  0.0343  0.0719
    1W        W42518  28.334  13.623   1.723 -0.0082 -0.0242 -0.1290
    1W        W42519  23.908  11.314   6.447 -0.1997  0.0350  0.1226
    1W        W42520   9.716  16.710   8.899 -0.2240 -0.2028 -0.0670
    1W        W42521  17.206   0.551   1.831  0.3569 -0.0163 -0.2451
    1W        W42522  18.893   7.103   7.797 -0.2967  0.1687  0.0413
    1W        W42523  27.420  24.661   7.462 -0.3399  0.3539 -0.3625
    1W        W42524  26.907  22.776   2.820  0.2824 -0.1822 -0.1790
    1W        W42525  17.946  12.438   1.481  0.0799 -0.1058  0.0191
    1W        W42526   4.192  19.422   6.339  0.0315  0.1228  0.1952
    1W        W42527  23.417  20.359   7.640 -0.0307 -0.0387 -0.0137
    1W        W42528   2.651  11.256   0.679 -0.1578  0.0897 -0.0665
    1W        W42529  26.454  20.206   8.678 -0.4874 -0.1083 -0.1631
    1W        W42530  12.211   9.618   9.119 -0.2236 -0.1248  0.1014
    1W        W42531   8.183  19.813   2.565  0.0024 -0.2822 -0.1151
    1W        W42532   5.718   8.128   0.814  0.2403 -0.0578 -0.1549
    1W        W42533   7.729   5.772   2.998 -0.3131 -0.0215 -0.1477
    1W        W42534   0.654  19.025   4.985 -0.0789 -0.1864  0.0505
    1W        W42535  25.723   6.305   7.580 -0.1730  0.4437  0.2446
    1W        W42536  14.422  26.309   7.877  0.0739 -0.1226 -0.1355
    1W        W42537  29.105  13.270   1.789  0.0319 -0.1332  0.0436
    1W        W42538  27.509  22.146   5.939 -0.0038 -0.3456  0.0273
    1W        W42539  11.932   4.660   8.587  0.5542 -0.0213  0.2974
    1W        W42540  24.992   9.483   5.957  0.1686  0.0856  0.3797
    1W        W42541   2.576   8.171   3.240 -0.1286  0.1515 -0.0361
    1W        W42542   9.040  18.011   1.565 -0.0943 -0.0019  0.1704
    1W        W42543   7.190  16.012   2.781  0.0455 -0.0460 -0.1169
    1W        W42544  20.763  27.408   0.953 -0.0465  0.1676  0.4039
    1W        W42545   3.160  10.523   8.504 -0.1138  0.0335 -0.0023
    1W        W42546  29.739   2.007   6.715  0.0050  0.0249 -0.0085
    1W        W42547  15.721   1.021   0.411  0.1073 -0.0818  0.0620
    1W        W42548  11.322   3.078   8.319  0.0352 -0.1859 -0.3099
    1W        W42549   7.302   5.228   8.288  0.3410 -0.0881 -0.0448
    1W        W42550   0.906  20.297   6.188  0.1448  0.1027 -0.3393
    1W        W42551  29.276  15.081   7.708 -0.2403  0.2022  0.0901
    1W        W42552  18.690  15.284   0.308 -0.2627  0.0732  0.0344
    1W        W42553  11.871   6.268   0.618  0.2272  0.0734  0.2386
    1W        W42554   0.907   4.236   0.429 -0.1165 -0.0927  0.1925
    1W        W42555  12.500  11.131   8.984  0.0348  0.1034  0.0993
    1W        W42556   1.645  28.958   7.346  0.1773  0.0457 -0.4035
    1W        W42557  24.019  28.297   2.464 -0.0923 -0.0258 -0.0462
    1W        W42558  13.953  17.675   8.064  0.0543  0.2717 -0.0011
    1W        W42559  23.866  30.082   8.109  0.0075 -0.1310  0.1850
    1W        W42560  29.976  16.435   7.581  0.1009 -0.0214  0.1490
    1W        W42561   1.395  23.066   4.803 -0.1121  0.1248  0.2456
    1W        W42562  27.958  20.244   1.989 -0.4422 -0.2445 -0.2588
    1W        W42563  29.437  10.404   8.463 -0.3504 -0.1562 -0.0915
    1W        W42564   3.215   9.364   0.485  0.1025  0.1973 -0.0826
    1W        W42565  20.949  18.576   0.633 -0.0684 -0.1043 -0.0652
    1W        W42566  26.678  20.829   9.201 -0.0177  0.0890  0.1427
    1W        W42567  12.657   9.845   9.050  0.2166 -0.2173 -0.3153
    1W        W42568  24.542  28.355   7.561 -0.1605 -0.0703  0.1165
    1W        W42569  16.236  25.279   8.689 -0.4145 -0.1285 -0.0508
    1W        W42570  21.021  10.151   8.469  0.0819  0.4816  0.0316
    1W        W42571  21.861  14.539   7.508  0.1862 -0.0067  0.0622
    1W        W42572  13.468   4.926   4.210 -0.1809  0.0407  0.0928
    1W        W42573   6.679  17.994   6.091 -0.0495  0.0380  0.0789
    1W        W42574  29.105   5.009   8.735 -0.0847 -0.0025 -0.0223
    1W        W42575  15.545  25.635   1.756 -0.0794 -0.0664  0.0643
    1W        W42576   9.154   7.929   0.865 -0.3681  0.1113 -0.2549
    1W        W42577   3.533  23.239   8.597  0.1144  0.2268 -0.1355
    1W        W42578  18.826   3.166   0.898  0.0084 -0.0433 -0.1260
    1W        W42579   8.437  17.667   1.110 -0.0841 -0.0701 -0.2344
    1W        W42580   3.973   2.789   0.200  0.3270 -0.1446 -0.3427
    1W        W42581  13.486   0.938   8.608 -0.1991 -0.3195 -0.0817
    1W        W42582  20.000  20.966   8.019  0.2457  0.2544 -0.2094
    1W        W42583   9.925  24.835   0.664  0.0086  0.0065 -0.2187
    1W        W42584  17.510   0.856   7.318 -0.2068 -0.3498 -0.0279
    1W        W42585  21.502  17.253   0.902 -0.0884  0.2965 -0.0766
    1W        W42586  10.644  22.013   7.626  0.0332 -0.2324 -0.1881
    1W        W42587   9.258  14.092   7.627  0.0230 -0.3818  0.4327
    1W        W42588   4.215  21.699   0.814 -0.0088  0.1948 -0.0055
    1W        W42589   3.454  15.085   9.187  0.2257 -0.1816 -0.1117
    1W        W42590  21.509   6.565   0.050  0.0540  0.1000 -0.2379
    1W        W42591  17.984   9.227   7.301 -0.1660  0.2249 -0.2664
    1W        W42592  10.881  26.889   3.020 -0.1059  0.0465  0.0506
    1W        W42593  18.057  28.154   8.973  0.3459  0.1932 -0.1707
    1W        W42594  29.865  10.224   8.055  0.4165 -0.3140  0.0592
    1W        W42595  13.548  17.063   1.808 -0.1141  0.2469  0.2411
    1W        W42596  18.952   5.468   8.957  0.1286  0.4940  0.0790
    1W        W42597  18.605   6.899   1.301 -0.0423 -0.3678 -0.3925
    1W        W42598  27.764  13.789   2.180  0.1716 -0.0183 -0.0158
    1W        W42599  14.134   0.569   3.425  0.0046  0.3196 -0.0454
    1W        W42600  26.696   9.873   6.823  0.0831 -0.0867  0.2943
    1W        W42601  27.702  12.787   7.572 -0.3637 -0.1710  0.0316
    1W        W42602  23.111  27.058   0.043 -0.0499 -0.0745  0.2490
    1W        W42603  22.383  24.306   1.941 -0.0515  0.3707  0.3053
    1W        W42604  18.289   4.406   1.147 -0.1489 -0.1022  0.2696
    1W        W42605   5.581   0.321   7.112  0.0014 -0.1415 -0.0509
    1W        W42606  21.899  29.234   2.313  0.0387 -0.2487  0.0774
    1W        W42607  13.456  10.864   0.214  0.0336  0.0638  0.0243
    1W        W42608  28.981   3.317   8.544 -0.3729  0.0924  0.1396
    1W        W42609   3.690   3.890   9.374 -0.2013 -0.3839 -0.0287
    1W        W42610   5.782  20.221   6.211 -0.0629  0.3187 -0.1279
    1W        W42611  15.663   3.973   0.609 -0.3639 -0.0850 -0.0596
    1W        W42612   3.886   6.183   2.649 -0.2461  0.0376  0.0533
    1W        W42613   9.330  10.045   2.318  0.0411  0.0995 -0.1390
    1W        W42614  24.877   6.038   7.235 -0.0779  0.1069 -0.2109
    1W        W42615  23.393  14.627   6.219 -0.1247  0.0504 -0.0019
    1W        W42616  15.179   6.228   9.033 -0.0934 -0.1457  0.1061
    1W        W42617  11.133  24.430   1.848 -0.0457 -0.0036  0.1878
    1W        W42618  10.352   4.081   8.574  0.1405  0.3203 -0.0620
    1W        W42619   2.722  16.336   9.257  0.1235  0.0696 -0.2179
    1W        W42620   6.295  21.094   9.286 -0.1682 -0.2867  0.1825
    1W        W42621   2.653  18.536   0.805  0.1981  0.3603 -0.0808
    1W        W42622  21.805  27.004   1.507 -0.3324 -0.0543  0.0227
    1W        W42623  29.252  17.702   0.826  0.1498  0.1783 -0.0176
    1W        W42624  14.117  13.853   0.202  0.0329 -0.1197 -0.0025
    1W        W42625   9.625   9.384   9.349  0.5468  0.0077 -0.0672
    1W        W42626  15.654  12.593   2.141 -0.1209  0.0480 -0.0272
    1W        W42627   2.540   5.387   1.982 -0.2325 -0.4780  0.3163
    1W        W42628  18.562  27.497   2.834  0.2146  0.2074  0.1572
    1W        W42629  21.614  14.385   7.043  0.2940  0.0608  0.1870
    1W        W42630  16.206   4.016   7.046  0.1382  0.2310 -0.1301
    1W        W42631  16.216   7.672   0.244  0.1004 -0.0564  0.0062
    1W        W42632  24.481  11.837   1.033  0.3051  0.3570  0.2734
    1W        W42633   0.436  13.161   5.371  0.0395 -0.1197 -0.1572
    1W        W42634  10.363  20.873   9.209  0.2292 -0.1452  0.0488
    1W        W42635   4.111  12.087   7.457  0.3761  0.0263 -0.0978
    1W        W42636  27.073  26.310   2.348 -0.0333  0.0626 -0.0347
    1W        W42637  23.807  13.119   7.936  0.0015  0.0854 -0.0684
    1W        W42638  17.567  16.975   0.420 -0.1222  0.0808 -0.2438
    1W        W42639  21.142  13.705   2.479 -0.0004  0.2357  0.0438
    1W        W42640  27.434  25.939   6.624  0.0548  0.2408 -0.0162
    1W        W42641  26.160  28.053   0.993 -0.2508 -0.4649 -0.1700
    1W        W42642  28.143  18.461   4.964 -0.1084 -0.1518 -0.0752
    1W        W42643  28.761  11.170   0.181 -0.0458  0.2046  0.0113
    1W        W42644   0.304  25.262   8.755 -0.0149 -0.0686 -0.1884
    1W        W42645  12.161  12.600   8.871  0.0106 -0.0183  0.2153
    1W        W42646  22.896  19.534   9.009 -0.1402 -0.0348 -0.1602
    1W        W42647  25.853  27.362   9.388 -0.2296 -0.0197 -0.0054
    1W        W42648  11.219   7.487   8.441  0.3071  0.0716  0.0221
    1W        W42649   7.853   4.923   8.912 -0.3516  0.1448  0.0622
    1W        W42650   8.257   6.354   7.697  0.2240  0.2382  0.0205
    1W        W42651   1.895   8.906   1.203 -0.0626  0.0965  0.0642
    1W        W42652   6.075   6.870   2.231 -0.0658  0.0947  0.3009
    1W        W42653   2.271   2.633   8.578 -0.1302  0.3894  0.1267
    1W        W42654  10.090   0.239   8.319 -0.1003 -0.2667  0.2535
    1W        W42655   4.925   7.372   0.916 -0.1141  0.3054 -0.0671
    1W        W42656  21.269   6.800   1.438 -0.2567  0.2252  0.2107
    1W        W42657  28.815   6.711   2.167 -0.4630 -0.1699  0.2609
    1W        W42658   3.748  11.264   7.470 -0.2330 -0.3203 -0.0667
    1W        W42659   8.108  26.668   8.011  0.2604  0.0400  0.3824
    1W        W42660   5.007   6.013   8.963 -0.0319 -0.1601  0.2051
    1W        W42661  16.938  25.203   2.333  0.4135  0.2173  0.1605
    1W        W42662  15.621   6.506   0.340 -0.0313  0.0921  0.2850
    1W        W42663  23.171  27.222   1.316  0.2049 -0.1744 -0.2945
    1W        W42664  16.024   7.307   1.978  0.0538  0.0115  0.0391
    1W        W42665  27.749  10.324   7.524 -0.0677  0.0882  0.1418
    1W        W42666   9.774  28.601   1.719 -0.3118  0.0370  0.2410
    1W        W42667   6.424  24.859   0.903  0.0635  0.0713  0.2560
    1W        W42668  24.375  21.974   1.888  0.1364 -0.1106  0.0373
    1W        W42669  11.031   4.344   1.671 -0.0670 -0.1513 -0.1352
    1W        W42670   8.475  26.146   1.671 -0.4049 -0.0636  0.1481
    1W        W42671  27.608  29.883   0.896 -0.1205  0.1948  0.1252
    1W        W42672  27.035  19.220   6.465 -0.0638 -0.3362 -0.0909
    1W        W42673  15.505   1.646   2.590  0.2554  0.5340  0.0344
    1W        W42674   1.757  20.510   1.106 -0.0388  0.3014 -0.0306
    1W        W42675   6.106  21.940   6.018  0.0740 -0.3113 -0.0519
    1W        W42676  23.164  12.274   0.038  0.2885  0.1179 -0.1163
    1W        W42677  10.005  27.964   0.539 -0.3089  0.2185  0.2361
    1W        W42678   5.753  23.915   1.077 -0.2679 -0.0056  0.0935
    1W        W42679  26.086  11.962   9.252  0.2686  0.1933 -0.1292
    1W        W42680   8.514  21.844   0.646 -0.2424  0.4287 -0.2298
    1W        W42681  17.416  15.321   7.616 -0.0307  0.1805 -0.0361
    1W        W42682   7.643  10.996   8.158  0.0153  0.2183 -0.2783
    1W        W42683  22.627  25.425   7.894  0.2735 -0.0727  0.0478
    1W        W42684  11.780  26.220   9.310 -0.0630  0.1711  0.3320
    1W        W42685   4.513   3.191   0.202 -0.0369  0.1282 -0.0734
    1W        W42686   2.509   4.379   2.930 -0.1221  0.1920  0.1438
    1W        W42687  26.751   6.926   8.914  0.1805  0.2140  0.0035
    1W        W42688   1.550  14.744   0.817  0.0595  0.0627 -0.0855
    1W        W42689  19.361  22.727   6.912 -0.0387 -0.0134 -0.1286
    1W        W42690  29.522  29.399   0.041  0.3442  0.1002 -0.1844
    1W        W42691   1.505  20.882   1.292  0.1673  0.2921  0.1083
    1W        W42692  17.160   8.801   0.337  0.0260 -0.2516 -0.2864
    1W        W42693  11.969   4.088   0.543 -0.0504  0.4347 -0.0414
    1W        W42694  29.834   0.171   6.667  0.2225  0.1363 -0.0952
    1W        W42695  13.874   1.918   1.158 -0.0576 -0.2078 -0.1273
    1W        W42696   0.950   9.178   2.697 -0.0437 -0.1840  0.1570
    1W        W42697  14.227  15.242   1.170  0.1949 -0.0382 -0.1478
    1W        W42698   8.135  27.874   8.930 -0.0838 -0.2567 -0.0837
    1W        W42699  29.122  14.247   0.620  0.2456  0.1176  0.1403
    1W        W42700  25.410  24.640   8.206 -0.1869 -0.0677  0.1329
    1W        W42701   5.384   6.019   2.135 -0.0566 -0.0182  0.2711
    1W        W42702  17.011   1.692   8.643 -0.0653  0.0259 -0.0710
    1W        W42703   0.624   7.211   2.876  0.2997  0.1576 -0.1787
    1W        W42704   0.888  28.096   2.720  0.0629 -0.0258 -0.0169
    1W        W42705  20.080   8.076   9.027  0.1609 -0.0700 -0.1309
    1W        W42706  26.829  17.932   7.726 -0.0644 -0.1434  0.4252
    1W        W42707  17.870  21.872   8.777 -0.0714 -0.3029  0.1376
    1W        W42708  10.533   8.156   8.337 -0.3143 -0.2139 -0.0229
    1W        W42709   5.834  20.638   7.435  0.1126  0.2003 -0.0947
    1W        W42710  23.918  20.763   1.629  0.3046  0.0713  0.1240
    1W        W42711  24.596  12.417   6.691 -0.0596 -0.0538  0.1908
    1W        W42712   7.576  13.565   9.144  0.1084 -0.1080 -0.2442
    1W        W42713  18.400  27.843   2.275  0.0055 -0.1397 -0.0472
    1W        W42714  26.306  15.563   9.354 -0.0110 -0.2518  0.1754
    1W        W42715  11.592  23.334   1.879  0.0568  0.0149  0.2165
    1W        W42716  27.615   7.798   7.160 -0.1227 -0.0311  0.0827
    1W        W42717  17.690  29.140   0.765  0.3569 -0.0870  0.0567
    1W        W42718  23.502   6.606   7.980  0.0244  0.0191 -0.2310
    1W        W42719  16.276   6.141   1.327 -0.0351  0.3872 -0.0660
    1W        W42720  13.472  15.770   1.921 -0.0873 -0.1780  0.0286
    1W        W42721  13.246  27.625   0.508 -0.1332  0.0484 -0.1923
    1W        W42722  11.257  23.356   7.022  0.2138  0.2904  0.1459
    1W        W42723  10.681  18.338   0.979  0.3940 -0.3135  0.1971
    1W        W42724  24.418   2.164   9.359  0.0468  0.0897  0.1209
    1W        W42725   0.742  24.639   6.969  0.0766  0.0896 -0.1695
    1W        W42726  24.245   1.461   6.623  0.0231 -0.0680 -0.3601
    1W        W42727   3.548  26.355   8.873  0.0201  0.3691  0.0255
    1W        W42728   2.980  13.711   1.196 -0.0104  0.1958  0.0026
    1W        W42729   6.880   0.575   0.618  0.0003 -0.0493  0.0332
    1W        W42730   2.690  13.343   7.727 -0.2392  0.0384  0.0907
    1W        W42731  12.050  29.018   1.298  0.0070 -0.0998 -0.1061
    1W        W42732  11.873   9.878   8.227 -0.2078 -0.1688 -0.0446
    1W        W42733  28.264  10.660   2.924  0.0854 -0.0151  0.0580
    1W        W42734   4.716   7.236   1.410 -0.1452  0.1933 -0.1098
    1W        W42735  23.534   4.498   2.049 -0.1504  0.0698  0.3183
    1W        W42736  10.346  17.113   2.527  0.1298 -0.2210 -0.3183
    1W        W42737   9.759   0.580   9.343  0.1572  0.0828  0.1242
    1W        W42738  19.318  27.746   7.930 -0.3226 -0.0965  0.1822
    1W        W42739  16.044   5.837   8.858  0.1096 -0.3237 -0.3354
    1W        W42740  20.371  13.889   1.330  0.0385 -0.0694  0.0691
    1W        W42741  27.065  14.839   0.381  0.0954  0.0134  0.1959
    1W        W42742  15.196  21.319   8.302  0.0010  0.0249 -0.0079
    1W        W42743  24.942  14.515   0.083  0.1924 -0.3696  0.2411
    1W        W42744  21.543   3.525   7.587 -0.1814 -0.0674  0.1354
    1W        W42745  25.801   1.368   8.645 -0.0727  0.0571 -0.1689
    1W        W42746  10.764  26.712   0.054 -0.0682  0.0212 -0.0252
    1W        W42747  26.437  14.441   6.523  0.0516 -0.0921 -0.0383
    1W        W42748  12.453  28.512   1.853 -0.0172 -0.0796 -0.1192
    1W        W42749   5.050  23.445   7.257  0.1734 -0.0609  0.1421
    1W        W42750  27.384  28.661   7.396  0.1370  0.1303  0.0009
    1W        W42751  10.747   1.268   2.319 -0.3766 -0.1100  0.1692
    1W        W42752   6.917  26.486   6.957 -0.5102  0.0979  0.0672
    1W        W42753  24.715  13.544   7.158 -0.0087 -0.1911  0.2315
    1W        W42754  27.845  18.515   1.854 -0.0462  0.1888  0.1718
    1W        W42755  24.910  25.659   1.546 -0.2182 -0.2328  0.1929
    1W        W42756  10.436  11.044   1.687  0.0642  0.2939  0.1884
    1W        W42757   0.357  16.053   6.894 -0.0089 -0.1795  0.0513
    1W        W42758  24.759   7.853   0.289  0.3248 -0.2809  0.1054
    1W        W42759  10.292  14.131   0.946  0.0655  0.1092 -0.0254
    1W        W42760  10.125  21.263   0.653  0.0729  0.0490  0.1668
    1W        W42761   2.185   0.180   0.582  0.2175  0.0125  0.1339
    1W        W42762   4.336  13.984   9.066  0.0776  0.2790 -0.1423
    1W        W42763  21.989  16.532   1.668  0.2125  0.2591 -0.0719
    1W        W42764   7.927   7.067   8.623  0.0730 -0.1343  0.1147
    1W        W42765  27.318   3.851   3.042 -0.1681 -0.3025 -0.1751
    1W        W42766   0.002   1.888   8.359  0.0375  0.0545  0.1275
    1W        W42767   4.770   8.848   1.546 -0.0380  0.2663 -0.0760
    1W        W42768  13.445  21.113   2.663  0.1927  0.1195 -0.4468
    1W        W42769  20.450  15.515   0.727 -0.2818 -0.1339  0.1158
    1W        W42770  16.110   6.129   9.307  0.0529 -0.2129  0.0468
    1W        W42771  25.866   5.048   8.148 -0.3768  0.1072 -0.0885
    1W        W42772  22.242  12.010   0.054 -0.1287 -0.0375 -0.2576
    1W        W42773  18.125   1.012   9.223 -0.1953 -0.0372 -0.0589
    1W        W42774  27.289   8.625   6.903 -0.0523  0.1419  0.0585
    1W        W42775  29.215  27.736   0.624  0.1740  0.0495  0.0387
    1W        W42776   3.012   7.853   8.222 -0.0175 -0.1654 -0.0607
    1W        W42777  12.872   3.474   8.146  0.1716 -0.1262  0.2402
    1W        W42778   6.432   9.531   2.024 -0.1188  0.0294  0.0128
    1W        W42779  14.944  10.941   2.698  0.4557  0.1279  0.0224
    1W        W42780  23.922  28.807   8.505 -0.1671 -0.3276 -0.0080
    1W        W42781   0.244  26.383   1.651  0.0932 -0.1609  0.2459
    1W        W42782   2.013   1.146   3.286 -0.1187  0.1911 -0.0081
    1W        W42783  19.183   8.387   8.875  0.3946 -0.2287 -0.0861
    1W        W42784  14.734   4.739   6.841 -0.1133  0.0738 -0.1833
    1W        W42785  23.159  16.982   8.581  0.1052  0.1368  0.1292
    1W        W42786  25.974   4.134   1.010 -0.0339  0.1079 -0.3624
    1W        W42787  25.928  16.550   1.167 -0.1862  0.0074  0.2046
    1W        W42788  26.676  13.931   6.448  0.2444 -0.1742 -0.1845
    1W        W42789  11.858  25.670   1.576  0.0247  0.3514  0.4307
    1W        W42790  14.920  25.308   1.346 -0.3208  0.2128 -0.0895
    1W        W42791  27.526  28.394   6.988 -0.0270 -0.1779  0.1852
    1W        W42792  23.310   3.715   8.685  0.1863 -0.0335 -0.1140
    1W        W42793   0.542   1.897   6.427 -0.2252 -0.1375 -0.3646
    1W        W42794   4.913   6.504   8.266 -0.1279 -0.2158 -0.1495
    1W        W42795  14.651  11.189   2.354 -0.0063 -0.1871 -0.1194
    1W        W42796  26.376  28.349   8.438  0.0431  0.1588 -0.1856
    1W        W42797   0.523   4.251   9.131 -0.1869  0.0679 -0.0636
    1W        W42798  28.321   9.311   8.077 -0.1092 -0.1802  0.3185
    1W        W42799  20.971   1.409   7.042 -0.2035 -0.1017  0.2202
    1W        W42800  21.717  25.382   0.869 -0.0536 -0.1736  0.1042
    1W        W42801  19.726  12.295   1.688 -0.1056  0.0066  0.0574
    1W        W42802   4.677   2.499   7.848  0.5280  0.1109  0.0067
    1W        W42803  29.288   5.064   8.296 -0.0458  0.0366 -0.1494
    1W        W42804   1.216   4.244   7.476  0.1001  0.0824 -0.3887
    1W        W42805   4.938  10.490   0.886 -0.0005  0.3482  0.3027
    1W        W42806  18.904  19.766   8.067 -0.0336  0.0691 -0.1212
    1W        W42807  11.170   7.629   3.696  0.0081 -0.0419 -0.2334
    1W        W42808  15.272  12.411   0.696 -0.1661 -0.0953  0.2858
    1W        W42809  19.789  22.865   8.913 -0.0243  0.0801  0.0715
    1W        W42810  28.429  26.403   8.455  0.0778  0.2066  0.1827
    1W        W42811   1.920  15.397   1.126  0.0212  0.2199 -0.1239
    1W        W42812  17.728   4.536   1.024  0.1218  0.2424  0.2792
    1W        W42813  26.371  14.811   7.489  0.4548  0.1450  0.1007
    1W        W42814  11.791  16.643   8.477 -0.1294  0.1449 -0.0194
    1W        W42815  19.095   5.729   2.281 -0.1672  0.0836  0.0691
    1W        W42816  26.058  16.301   7.844 -0.2416  0.1073 -0.0656
    1W        W42817  25.840  20.239   0.780 -0.1195  0.5157 -0.2230
    1W        W42818   8.249  15.213   0.227 -0.0790 -0.0987 -0.0006
    1W        W42819   3.088  20.741   5.728 -0.1114  0.1520 -0.0137
    1W        W42820  19.210  12.348   6.923  0.0497 -0.0388  0.2167
    1W        W42821   5.887  17.416   7.595 -0.0950 -0.0437 -0.0447
    1W        W42822   5.011   9.320   0.593  0.1383  0.0909  0.3105
    1W        W42823  27.403  23.693   7.186  0.3098  0.0193 -0.2880
    1W        W42824  23.862  19.502   8.955 -0.0054  0.2152  0.1039
    1W        W42825  24.134   8.282   2.436 -0.2658 -0.3774 -0.1734
    1W        W42826   6.726  20.694   1.559  0.2432  0.2683 -0.1798
    1W        W42827  12.063  12.266   0.797  0.0612 -0.0865  0.2561
    1W        W42828  22.950  13.619   8.011  0.1675  0.2619  0.0623
    1W        W42829   5.580  18.765   6.256  0.1626 -0.0118 -0.1982
    1W        W42830  24.655  25.509   1.982  0.0509 -0.2155  0.1226
    1W        W42831  12.854   7.138   1.793  0.4436 -0.0103 -0.0589
    1W        W42832  11.165  19.362   0.157  0.0465 -0.2507  0.3032
    1W        W42833  17.922  20.031   6.870 -0.0082  0.0078 -0.0554
    1W        W42834  24.745   9.165   9.014 -0.1698  0.0052 -0.1496
    1W        W42835   0.955   3.157   2.382  0.1049 -0.0721 -0.1743
    1W        W42836  24.525   6.932   8.747  0.0655  0.1591 -0.3893
    1W        W42837   2.296  15.728   1.899 -0.0720 -0.2283 -0.2759
    1W        W42838  10.081  23.609   6.229 -0.0432 -0.1374  0.1529
    1W        W42839   8.501  29.395   7.778 -0.1643 -0.4035 -0.1445
    1W        W42840   3.585   9.819   0.560  0.2876  0.3698 -0.2426
    1W        W42841   1.495   5.150   7.766  0.0162 -0.1169 -0.1977
    1W        W42842  21.402  28.498   1.482  0.0393  0.0529 -0.0071
    1W        W42843  21.209  23.708   2.450  0.0552  0.4001 -0.0452
    1W        W42844   2.193  18.047   9.384  0.0475  0.1865  0.3770
    1W        W42845   8.304  27.765   7.353 -0.0854  0.0299 -0.3549
    1W        W42846  19.200   4.248   2.314 -0.0446 -0.2506  0.0497
    1W        W42847  26.331  25.138   1.675 -0.0386 -0.0312  0.1739
    1W        W42848   8.241   0.545   0.634  0.0592  0.0302 -0.1768
    1W        W42849   2.562   9.212   9.186 -0.1196  0.1694  0.2858
    1W        W42850   3.174  22.166   8.342 -0.0906 -0.0933  0.0211
    1W        W42851  28.945  12.248   5.803  0.1763 -0.4062  0.0539
    1W        W42852  29.103  21.292   2.062  0.0198  0.0785 -0.1263
    1W        W42853   6.815  13.526   1.304 -0.0146 -0.0750 -0.0982
    1W        W42854  19.379  12.539   1.286  0.0853 -0.1397 -0.0311
    1W        W42855  20.110   3.773   7.157  0.0151 -0.0966 -0.0840
    1W        W42856  19.186   6.739   7.501  0.0237  0.1819  0.0695
    1W        W42857  23.940  20.308   7.414 -0.0557 -0.0317  0.0730
    1W        W42858  11.930   8.485   1.208 -0.1959 -0.1180 -0.0703
    1W        W42859  18.806  10.492   7.900  0.1642  0.2430  0.0551
    1W        W42860  23.972  26.033   1.232  0.0448 -0.0996 -0.0120
    1W        W42861   3.376   5.429   3.617 -0.0299  0.2392 -0.1792
    1W        W42862  13.595  26.326   8.359  0.0111 -0.0361  0.0588
    1W        W42863  12.805   1.431   1.593 -0.0157  0.2157  0.2386
    1W        W42864  27.580  17.292   1.283  0.1799  0.0165 -0.0763
    1W        W42865  10.683  22.349   1.577  0.2945  0.1181  0.3637
    1W        W42866   8.725   6.326   2.874  0.3666 -0.1405  0.0003
    1W        W42867  11.739   3.183   0.518 -0.0095 -0.0485 -0.2521
    1W        W42868  27.433  21.323   8.096 -0.0000  0.0809  0.2088
    1W        W42869  12.484  10.101   0.458  0.1245  0.3091  0.0841
    1W        W42870  12.500   3.637   7.737  0.2647 -0.0188  0.3057
    1W        W42871   7.596   9.260   8.656  0.0051 -0.1644 -0.0778
    1W        W42872  11.048   8.835   2.524 -0.2400 -0.0112 -0.1154
    1W        W42873  15.086  23.208   1.115 -0.2322 -0.0962 -0.1654
    1W        W42874  10.981  26.344   0.484 -0.1506  0.1182 -0.2959
    1W        W42875  10.713  26.235   1.400  0.0102  0.2655 -0.0571
    1W        W42876  26.787   2.762   1.271 -0.3399  0.1792  0.0570
    1W        W42877  27.528   0.620   8.566  0.1230  0.0590  0.0921
    1W        W42878  25.704  26.934   2.580  0.0138  0.0691  0.0013
    1W        W42879   7.632  14.533   7.902  0.1829  0.3403  0.0942
    1W        W42880  16.050  22.769   1.402  0.3320 -0.2762 -0.1759
    1W        W42881  22.269  12.870   2.103  0.3575  0.0282  0.0351
    1W        W42882  18.340   7.308   2.044  0.1396 -0.3297  0.0449
    1W        W42883   1.180   0.778   1.073  0.1153  0.0008 -0.2914
    1W        W42884   3.654  23.512   8.988 -0.0130 -0.4612 -0.3920
    1W        W42885   7.328  28.599   8.655 -0.2266 -0.0969  0.1612
    1W        W42886  15.227   5.836   9.296  0.3337 -0.1007 -0.2119
    1W        W42887  20.493  22.203   8.025  0.3203 -0.0327 -0.0449
    1W        W42888  28.110  17.475   8.455  0.0595  0.0679  0.0431
    1W        W42889  24.464   5.581   7.623 -0.0485 -0.5108 -0.0511
    1W        W42890   0.591  17.542   9.315 -0.1668 -0.1401 -0.0440
    1W        W42891   6.956   1.579   0.726 -0.0184 -0.0980  0.0640
    1W        W42892   0.328  22.144   8.527  0.0274 -0.2143  0.0077
    1W        W42893   4.543   7.334   6.960 -0.2042  0.2459  0.5255
    1W        W42894  17.916  10.150   7.049  0.0430 -0.2443 -0.0168
    1W        W42895  15.300  26.587   1.159 -0.0215  0.1961 -0.2694
    1W        W42896  22.047  29.739   9.156  0.0185  0.1287 -0.1960
    1W        W42897   8.630   3.645   2.133  0.0116  0.0912 -0.0664
    1W        W42898  27.233  11.478   5.942  0.2955  0.1699 -0.2651
    1W        W42899   8.516  20.772   1.682  0.1967  0.0936  0.2200
    1W        W42900   2.365  27.389   0.377 -0.2753 -0.1761  0.2491
    1W        W42901   3.707   1.245   1.643  0.3575 -0.0350 -0.0106
    1W        W42902  27.412  28.283   2.915 -0.5193  0.2162  0.1387
    1W        W42903  14.320  15.754   7.547 -0.0048  0.1268 -0.0683
    1W        W42904  20.476   1.286   2.799 -0.1014 -0.2435 -0.0716
    1W        W42905   2.662   8.307   7.973 -0.1116 -0.3720  0.0877
    1W        W42906   9.150  16.146   7.253  0.1652  0.0579  0.1127
    1W        W42907  10.378   5.295   3.539  0.1376  0.0155  0.2210
    1W        W42908  24.893   2.131   1.666 -0.1229 -0.0167 -0.2758
    1W        W42909   8.620   4.390   0.648 -0.0342  0.1239 -0.2640
    1W        W42910   6.962   4.893   9.007 -0.1261  0.2989 -0.0682
    1W        W42911  28.114   7.663   1.232 -0.2067 -0.1407 -0.2859
    1W        W42912   6.598  10.014   2.131 -0.0517 -0.0115  0.2415
    1W        W42913   1.776  21.203   7.384 -0.0274 -0.1378  0.2580
    1W        W42914  26.374  24.268   6.261 -0.3337  0.1905 -0.3087
    1W        W42915  29.666   1.139   0.423 -0.3178 -0.2210  0.3650
    1W        W42916  28.738  16.896   6.329 -0.2697  0.0418  0.2777
    1W        W42917  10.961  17.458   1.194  0.0238  0.0999  0.1394
    1W        W42918  27.524   7.486   7.959  0.2361  0.2327  0.1180
    1W        W42919  15.989  24.185   2.703 -0.3888 -0.0917  0.0229
    1W        W42920   4.617   9.088   8.771  0.0843 -0.1185  0.0194
    1W        W42921   4.581  10.360   0.280 -0.0336  0.1234 -0.0064
    1W        W42922   1.856   5.779   8.987 -0.5043 -0.0257 -0.0813
    1W        W42923   9.529  20.519   6.719 -0.4085 -0.0797  0.0118
    1W        W42924   0.504   8.292   7.943  0.1186  0.1537 -0.0836
    1W        W42925  13.376   6.972   2.824 -0.0883 -0.0843  0.1473
    1W        W42926  14.538  20.195   9.125 -0.0313  0.0063 -0.1959
    1W        W42927  26.571  19.184   1.011 -0.1182  0.2222  0.1250
    1W        W42928  29.731   3.291   1.450 -0.1926  0.1765 -0.2284
    1W        W42929  29.035  21.148   2.931  0.1944  0.2094 -0.1381
    1W        W42930   9.038  14.969   1.618  0.2399 -0.2658 -0.0147
    1W        W42931   6.419   0.670   0.073 -0.2609  0.0575  0.0802
    1W        W42932  27.651   6.258   6.963 -0.0305 -0.2447 -0.0388
    1W        W42933  15.833  22.916   1.841 -0.2017 -0.1312 -0.0590
    1W        W42934  15.995   0.331   0.923 -0.0988  0.1455  0.0671
    1W        W42935  29.022  20.121   1.422  0.3154 -0.3897  0.2665
    1W        W42936   6.208   3.226   2.942  0.0955  0.0781  0.1353
    1W        W42937  16.182  14.592   7.860 -0.2420  0.1573  0.1163
    1W        W42938   6.555  25.107   7.180  0.3177 -0.3993  0.4385
    1W        W42939  18.788  11.560   9.080 -0.1142  0.3752  0.1670
    1W        W42940  23.989  13.874   6.322 -0.0642 -0.1098 -0.0037
    1W        W42941  13.726  10.198   0.120 -0.1595  0.2899  0.0728
    1W        W42942   6.888  24.531   0.109 -0.0932  0.2456 -0.0025
    1W        W42943   0.681   7.545   6.354 -0.0088 -0.0095  0.1099
    1W        W42944  28.938   7.459   9.027 -0.0490  0.4359  0.2483
    1W        W42945  12.512   6.851   1.606 -0.0090  0.0511 -0.0158
    1W        W42946  21.543  24.653   2.364  0.1976 -0.2263 -0.0996
    1W        W42947  12.085  29.374   2.750 -0.0716  0.0104 -0.3152
    1W        W42948  21.847  13.093   2.110  0.3250 -0.0242 -0.2650
    1W        W42949  14.226  14.745   9.069  0.1875 -0.0469 -0.0315
    1W        W42950  16.518  13.160   8.679  0.0922 -0.2952  0.3058
    1W        W42951  27.866  23.124   7.068  0.0016 -0.0843  0.3155
    1W        W42952   7.178  25.356   7.750 -0.2363 -0.0046 -0.3202
    1W        W42953  28.508   6.103   1.347 -0.2978  0.0455  0.4650
    1W        W42954  25.053  18.957   0.996  0.0427 -0.1377 -0.0030
    1W        W42955  17.909  25.827   8.664  0.1604 -0.1108 -0.1119
    1W        W42956  24.119  19.561   5.800 -0.0691 -0.1578 -0.1383
    1W        W42957  17.651   7.616   8.852 -0.3158  0.0937  0.1700
    1W        W42958   4.006  15.643   7.633  0.1075 -0.0499  0.1310
    1W        W42959  19.653  21.247   1.005 -0.5633 -0.3252  0.2021
    1W        W42960  10.412  18.958   1.780  0.1681  0.3814  0.0852
    1W        W42961   2.249  30.138   3.124 -0.3694 -0.0519 -0.0590
    1W        W42962   4.553   4.949   0.116 -0.0317  0.1700  0.3481
    1W        W42963  18.321  19.555   8.118  0.2246  0.1265  0.0950
    1W        W42964  24.841  28.093   2.492 -0.0088  0.3728  0.0939
    1W        W42965  11.097   6.166   1.700 -0.4705  0.1491  0.2198
    1W        W42966   4.115   1.204   1.312  0.2138  0.0479  0.1221
    1W        W42967  27.492  17.991   6.407  0.0433  0.0219 -0.0893
    1W        W42968  23.252   2.505   6.810  0.0964 -0.0095 -0.0575
    1W        W42969   6.890  20.378   7.623 -0.1466  0.1529 -0.4638
    1W        W42970  20.738   6.795   1.028  0.0160  0.0684  0.1796
    1W        W42971   5.225  17.823   8.144  0.2739  0.0466  0.0982
    1W        W42972  26.786   5.064   1.989 -0.1195  0.1049 -0.0954
    1W        W42973   7.182  12.441   7.822  0.0441  0.1972 -0.0756
    1W        W42974   8.839  25.927   1.373  0.0297 -0.0425 -0.2095
    1W        W42975  29.143  12.348   9.254  0.1055 -0.0340  0.4705
    1W        W42976  22.648   3.600   1.175 -0.1734 -0.0968 -0.1552
    1W        W42977   8.441  18.445   8.122 -0.0144  0.2019  0.1592
    1W        W42978  16.764  29.109   8.288 -0.0837 -0.4523  0.1241
    1W        W42979   3.296  27.681   2.862  0.0622  0.3404  0.5850
    1W        W42980   1.597   2.674   2.458  0.2808 -0.1246 -0.1365
    1W        W42981  30.061  19.615   6.411 -0.3100  0.0018 -0.0558
    1W        W42982  17.444  27.970   1.540 -0.1635  0.0860  0.2040
    1W        W42983  18.869  10.876   7.665 -0.0836  0.3325  0.0666
    1W        W42984   3.040  23.648   7.910  0.1993  0.0870 -0.0747
    1W        W42985  14.725   8.472   0.884 -0.1539  0.0517 -0.3016
    1W        W42986  18.890  27.911   7.358  0.1395  0.1158  0.0697
    1W        W42987   3.522  12.628   8.358  0.1922  0.1485 -0.1997
    1W        W42988  16.920   4.019   9.402 -0.0334  0.0155  0.2657
    1W        W42989  26.855  28.241   8.129  0.0429  0.1074  0.1581
    1W        W42990   5.173  20.915   1.234  0.1510  0.1244 -0.1558
    1W        W42991   7.827  20.809   6.894  0.0228  0.2287  0.0226
    1W        W42992   3.169  19.950   1.168 -0.2250 -0.2371  0.2563
    1W        W42993   2.496  11.749   1.417 -0.0266 -0.1051 -0.0306
    1W        W42994  19.452   8.028   8.625 -0.0468 -0.2338 -0.1431
    1W        W42995   2.389  28.610   3.403 -0.1370  0.0982  0.1440
    1W        W42996  24.259  21.269   1.516  0.3970 -0.0049 -0.0586
    1W        W42997  20.500   3.915   1.214  0.5236  0.0710  0.0316
    1W        W42998   1.602  10.481   0.101  0.1604  0.2447  0.2069
    1W        W42999   7.285  12.833   1.908 -0.1454 -0.0465  0.3571
    1W        W43000  13.037  22.992   6.814 -0.3314  0.2378 -0.1289
    1W        W43001  17.379  20.209   0.743  0.0848  0.0034 -0.0169
    1W        W43002   9.387  26.331   7.658  0.3786 -0.0406 -0.2723
    1W        W43003   8.570  11.989   8.568 -0.2912  0.0271  0.2012
    1W        W43004  25.773   2.404   7.626 -0.1536  0.4090  0.0489
    1W        W43005  22.926   2.514   1.779 -0.0572 -0.2374 -0.0308
    1W        W43006  19.807  20.063   7.741 -0.3110  0.1041  0.3182
    1W        W43007  11.614   0.447   1.843 -0.2215  0.1326 -0.1109
    1W        W43008   5.114  21.186   6.632 -0.1465 -0.1996 -0.0763
    1W        W43009  14.017  23.906   3.179 -0.1833  0.0190  0.0946
    1W        W43010   0.538  23.092   7.225 -0.1420 -0.3581  0.0377
    1W        W43011  18.394   1.395   8.254 -0.0558  0.1553  0.3909
    1W        W43012  26.242   4.871   2.840  0.2636  0.1817 -0.3403
    1W        W43013  25.401   1.523   2.718  0.0633  0.2424 -0.3650
    1W        W43014  13.590   7.435   8.467  0.0607 -0.2124 -0.2015
    1W        W43015   6.541   8.606   0.637  0.0824  0.1497 -0.2693
    1W        W43016  15.893  22.384   1.681  0.0150  0.1133 -0.1364
    1W        W43017  16.093  16.922   9.003  0.0478 -0.2074 -0.1809
    1W        W43018  23.996  29.203   6.911 -0.0094  0.2261  0.1015
    1W        W43019   9.604  23.218   8.734 -0.0195 -0.3277  0.1998
    1W        W43020   1.032   8.900   8.205  0.0284  0.3307 -0.0525
    1W        W43021  14.159  24.938   9.069 -0.0586 -0.2391  0.1751
    1W        W43022  29.556  22.025   6.367  0.2849 -0.0812 -0.0306
    1W        W43023  11.930  27.998   9.007 -0.1616  0.0561  0.2075
    1W        W43024  19.892   4.092   1.755  0.2061 -0.1085  0.1060
    1W        W43025   8.744  16.411   7.149  0.0865 -0.2047 -0.0401
    1W        W43026   8.571  23.767   1.635 -0.2253 -0.0729 -0.2747
    1W        W43027  20.581  12.264   8.344  0.0203 -0.1009  0.5725
    1W        W43028  16.173  13.777   1.383 -0.0807  0.1794 -0.4139
    1W        W43029  22.863  10.308   0.956  0.1145 -0.1741 -0.1148
    1W        W43030  12.546  24.154   0.694 -0.0652 -0.0153  0.0101
    1W        W43031  15.524  22.273   9.296 -0.4102 -0.0504  0.2248
    1W        W43032  21.600  17.605   0.563  0.1103  0.0122 -0.2111
    1W        W43033  28.296  21.995   1.037  0.0740  0.0605  0.0276
    1W        W43034  14.778   9.560   2.466 -0.0372 -0.1096  0.2076
    1W        W43035  10.343   2.343   2.208 -0.0651 -0.2211  0.3563
    1W        W43036  11.156  22.221   8.847 -0.0795 -0.2069 -0.0944
    1W        W43037  23.217  10.089   0.566  0.0274  0.5969 -0.0093
    1W        W43038   3.141  14.032   7.223 -0.3086 -0.0083  0.1839
    1W        W43039   9.499  14.631   2.240  0.2314 -0.1318  0.0559
    1W        W43040  24.553   5.194   8.379 -0.2952 -0.3048  0.1640
    1W        W43041   6.492  10.635   3.506 -0.1370  0.0983 -0.0163
    1W        W43042  11.118  25.418   1.015  0.1372 -0.0113  0.2286
    1W        W43043  24.190   0.740   7.478 -0.0822 -0.0937  0.0492
    1W        W43044  13.157  16.252   2.166 -0.4279  0.1489 -0.0192
    1W        W43045  17.497  24.488   1.943  0.3964  0.0104  0.0165
    1W        W43046  22.416   6.479   1.453  0.1809  0.2635 -0.0902
    1W        W43047  20.529  21.669   1.292  0.0011  0.0405 -0.1933
    1W        W43048   8.629  18.269   2.039  0.4601 -0.0923  0.1479
    1W        W43049  10.102  13.399   7.982 -0.1217  0.1862 -0.0705
    1W        W43050  11.894   5.184   8.650 -0.0649  0.3886 -0.2986
    1W        W43051  29.133   5.489   6.065  0.2172 -0.1993  0.2423
    1W        W43052  12.743  23.814   8.178 -0.1314 -0.3013  0.0598
    1W        W43053  25.574  12.010   9.135  0.0363 -0.1976  0.1874
    1W        W43054   0.927  17.338   7.947 -0.2316 -0.0734  0.2308
    1W        W43055   1.047   4.732   7.946  0.0502  0.1873 -0.0723
    1W        W43056  14.630  22.316   6.284  0.0748  0.3912  0.0127
    1W        W43057  14.907  15.816   1.789  0.1023  0.0063  0.2685
    1W        W43058   3.622   5.438   2.708  0.0018  0.2678 -0.0050
    1W        W43059  11.970  28.944   8.116  0.1745  0.1714  0.1498
    1W        W43060  16.453  22.576   8.614 -0.2366 -0.1741 -0.1546
    1W        W43061   7.898  26.066   8.820 -0.0326  0.0819  0.1698
    1W        W43062  22.307  16.249   0.513 -0.1895 -0.3039 -0.2373
    1W        W43063  10.633  28.393   0.422  0.2534  0.2454 -0.3502
    1W        W43064   4.862   2.736   0.184  0.0534  0.0381  0.0107
    1W        W43065  15.990   4.032   1.340 -0.1340 -0.1520  0.1818
    1W        W43066   9.472   5.512   2.368 -0.3989 -0.0097  0.2043
    1W        W43067  10.385  17.559   8.088  0.2219  0.0056  0.0255
    1W        W43068  26.423  13.934   8.753  0.1277  0.0853  0.0466
    1W        W43069  11.738   4.916   1.349  0.2206  0.1018 -0.2931
    1W        W43070   0.613   6.036   2.182  0.0901 -0.3717  0.0168
    1W        W43071   0.339  15.385   0.795  0.1017 -0.0153  0.1472
    1W        W43072   3.660  23.395   7.621 -0.1583 -0.0367 -0.1718
    1W        W43073   4.168  18.983   6.775  0.1124 -0.2261  0.1351
    1W        W43074   3.567   3.819   0.515  0.3778  0.0493 -0.2596
    1W        W43075   1.206   0.130   1.472  0.0171  0.0534  0.0052
    1W        W43076  15.213   8.887   9.170 -0.1667  0.1311  0.1352
    1W        W43077   8.365  12.270   8.167  0.2115  0.0172 -0.0166
    1W        W43078   2.673   1.571   8.077 -0.1680  0.1590  0.1104
    1W        W43079  16.046  24.675   1.759 -0.0658  0.0133  0.1212
    1W        W43080   8.449  24.897   0.894  0.2890 -0.0497 -0.0217
    1W        W43081  27.330  11.704   0.185 -0.2544 -0.3035 -0.1088
    1W        W43082  10.458   0.054   7.908 -0.2045 -0.1656 -0.1470
    1W        W43083  24.254   2.666   6.767  0.1117 -0.3094 -0.0754
    1W        W43084  22.324   6.480   2.368 -0.0716  0.1165 -0.0886
    1W        W43085  20.358   2.888   2.508  0.2151 -0.1706 -0.1529
    1W        W43086  29.356  19.511   0.705 -0.3393 -0.0547  0.0024
    1W        W43087   5.703  15.553   8.692 -0.4263 -0.0840  0.1639
    1W        W43088  28.529   9.321   6.053 -0.1780 -0.0163 -0.1220
    1W        W43089   0.091   1.806   1.516 -0.2295 -0.0557  0.1449
    1W        W43090  22.243  10.275   7.609  0.0641  0.2120 -0.0641
    1W        W43091   9.278  19.634   7.926  0.1235  0.1744  0.0909
    1W        W43092  11.535  16.998   1.836 -0.0787  0.0285  0.1320
    1W        W43093  14.172   9.453   0.457  0.1121  0.2123  0.3145
    1W        W43094  14.999   9.852   0.717 -0.1574  0.0550 -0.0443
    1W        W43095   5.748  14.802   7.935  0.2006 -0.0930 -0.0861
    1W        W43096   5.638  25.058   5.604  0.2583  0.0132  0.1742
    1W        W43097   8.148  10.526   3.091 -0.3386  0.0670  0.1942
    1W        W43098   9.298  17.571   1.526  0.3024 -0.2182  0.0719
    1W        W43099  24.778   0.046   0.001 -0.0006  0.1193  0.0601
    1W        W43100   1.054  10.609   1.631 -0.1458  0.1427 -0.0830
    1W        W43101  18.866   0.358   3.284 -0.0718  0.0290 -0.0838
    1W        W43102   0.899   3.376   7.137  0.1568 -0.2789 -0.0231
    1W        W43103  20.266  16.359   0.558 -0.0889  0.2470  0.1684
    1W        W43104  10.821   6.001   2.140 -0.0549  0.0555  0.3094
    1W        W43105   6.826  19.773   2.269  0.0363  0.0036 -0.1517
    1W        W43106  20.673   5.365   3.525 -0.0009 -0.0883  0.0602
    1W        W43107   4.919  24.156   6.453 -0.0283  0.1740 -0.2829
    1W        W43108  25.782   0.927   2.200 -0.0006  0.0679  0.0606
    1W        W43109   4.627  27.143   8.456 -0.1958  0.1333  0.1513
    1W        W43110   7.071  14.344   8.116 -0.0990 -0.1360 -0.2398
    1W        W43111  29.936   3.092   0.404 -0.0828  0.2110  0.3080
    1W        W43112  13.354  26.957   1.186  0.0380 -0.0937 -0.0313
    1W        W43113  21.358   2.517   0.964 -0.1696  0.0426 -0.0640
    1W        W43114  25.060  14.584   8.145  0.4331 -0.0838 -0.3037
    1W        W43115  23.341   3.330   0.714  0.1393 -0.3124 -0.0294
    1W        W43116  24.094   5.765   7.347 -0.0350 -0.1119 -0.0851
    1W        W43117   1.369  28.186   2.578  0.0229  0.3231 -0.2565
    1W        W43118  26.348  27.898   8.099 -0.1397 -0.1855  0.2054
    1W        W43119  27.432  25.350   0.327 -0.1559 -0.2505 -0.0164
    1W        W43120  14.928  13.579   9.309  0.0387 -0.0787  0.1114
    1W        W43121   3.971  21.975   0.322  0.2000  0.2061 -0.1256
    1W        W43122  11.998  28.284   1.914 -0.2472  0.0203  0.0963
    1W        W43123  18.388  14.451   8.741  0.1235  0.0914  0.1133
    1W        W43124  23.522  20.342   8.904 -0.1532  0.4957  0.2693
    1W        W43125  21.382  28.611   8.803  0.1516 -0.0377 -0.0940
    1W        W43126   6.812   6.768   1.465 -0.2221 -0.0111 -0.1258
    1W        W43127  18.818  22.774   1.210  0.2249 -0.1150  0.0701
    1W        W43128  29.504  17.419   8.849 -0.0637  0.0321  0.2805
    1W        W43129  27.618   4.254   8.317  0.2659 -0.0458 -0.0197
    1W        W43130  20.659  13.056   9.097  0.1615 -0.1075 -0.0063
    1W        W43131  12.396  25.277   0.617  0.1317  0.3313  0.0540
    1W        W43132  11.764  22.169   2.987  0.1605  0.0787  0.0972
    1W        W43133  11.935   2.051   0.804 -0.0110  0.1418  0.1033
    1W        W43134  11.088   6.895   1.159  0.2262 -0.0363  0.1196
    1W        W43135   2.345  27.077   2.373 -0.1532  0.0940  0.1648
    1W        W43136  12.388   1.772   8.870 -0.0057  0.1932 -0.1190
    1W        W43137   3.036  26.318   9.131  0.0796  0.1120  0.0789
    1W        W43138   3.799  14.998   1.499  0.2584  0.2968  0.6641
    1W        W43139   9.054  27.535   8.098  0.1271 -0.0575  0.0646
    1W        W43140  26.417   6.881   7.247  0.0008 -0.1516 -0.2228
    1W        W43141  15.863   7.458   8.734 -0.1249  0.2041  0.0512
    1W        W43142  12.154   8.714   8.166 -0.0485  0.3183  0.2314
    1W        W43143  23.606   0.673   9.284  0.0739 -0.3972 -0.0295
    1W        W43144  27.624  17.610   0.851  0.0735 -0.0203 -0.2789
    1W        W43145  25.743   3.780   0.093 -0.0359 -0.2038 -0.2217
    1W        W43146   9.458  28.868   9.298 -0.1792  0.0010 -0.2231
    1W        W43147  26.836   8.005   7.526  0.2027  0.1930  0.1257
    1W        W43148  11.177  16.890   7.639 -0.0686  0.1848  0.0057
    1W        W43149  27.449  28.184   9.149 -0.0107 -0.0987 -0.0089
    1W        W43150  29.197  27.248   1.496  0.0654 -0.0677 -0.0652
    1W        W43151  27.040  27.327   7.544 -0.2372 -0.1938 -0.0174
    1W        W43152  14.156  23.739   7.059  0.0218  0.1047  0.1502
    1W        W43153  22.617  23.720   6.052 -0.0996  0.0581  0.0416
    1W        W43154  21.313  27.151   6.530 -0.1359  0.1196 -0.0286
    1W        W43155  26.044  19.566   0.014 -0.1328 -0.0810 -0.3987
    1W        W43156   5.652  25.514   9.057 -0.0367  0.0980 -0.0694
    1W        W43157  21.686   8.759   8.970 -0.1600 -0.0955  0.0465
    1W        W43158   9.473  29.422   7.665  0.0202  0.1155 -0.0323
    1W        W43159   6.089  16.250   1.701  0.1008  0.3487  0.0663
    1W        W43160  23.305   4.853   8.743 -0.0327 -0.0480  0.2992
    1W        W43161  23.844  13.897   1.553  0.0736  0.2654  0.1845
    1W        W43162  11.275   3.468   8.710  0.2302  0.1470  0.2000
    1W        W43163  21.662  11.309   8.813 -0.0278 -0.0229  0.0104
    1W        W43164  19.232   8.643   9.339 -0.0225 -0.2320  0.2991
    1W        W43165   6.036  25.721   7.729  0.3203  0.2627 -0.0356
    1W        W43166  16.715   8.993   9.083  0.1217  0.0867  0.0481
    1W        W43167  18.315  28.870   2.869 -0.3771  0.2447  0.0424
    1W        W43168   6.500   9.025   7.775 -0.1543  0.0206 -0.2282
    1W        W43169  23.251   5.041   6.998  0.1671  0.1974  0.1667
    1W        W43170  10.740   7.859   3.622  0.0757  0.2203 -0.2413
    1W        W43171  25.425  14.535   6.248 -0.0685 -0.0809  0.1476
    1W        W43172  11.614   2.784   0.254 -0.4629 -0.0554 -0.0198
    1W        W43173  26.444  28.356   8.999 -0.1662  0.0114  0.0234
    1W        W43174   1.092   7.281   2.629  0.2550 -0.1804 -0.1324
    1W        W43175  13.424  17.183   1.348 -0.0517  0.1876  0.0454
    1W        W43176   2.827  10.454   9.355 -0.0154  0.0199  0.1235
    1W        W43177  29.497  11.899   8.877 -0.2499 -0.0314  0.0911
    1W        W43178  12.482   4.601   7.963  0.0637  0.1644  0.0163
    1W        W43179  29.162   8.370   6.007 -0.0943 -0.1255  0.1376
    1W        W43180   5.894  19.028   6.625  0.1663 -0.0571  0.0524
    1W        W43181  18.009   7.700   1.993 -0.1482  0.2110  0.0652
    1W        W43182  16.091  28.404   0.254 -0.2364  0.1490 -0.0739
    1W        W43183  28.866  13.958   6.846  0.0028  0.3943 -0.1997
    1W        W43184   8.873   2.025   3.236  0.5455  0.1624  0.2128
    1W        W43185  16.275   2.910   8.111  0.3107  0.0758 -0.3190
    1W        W43186  23.039   3.543   1.867 -0.1424 -0.1479 -0.1059
    1W        W43187  22.702  10.378   1.805  0.1207  0.1932 -0.0556
    1W        W43188  18.799  30.065   2.818 -0.0413 -0.0184 -0.4198
    1W        W43189  26.442  23.814   1.241 -0.3653 -0.0828 -0.2354
    1W        W43190  20.716   1.304   2.391 -0.2208  0.3227  0.0648
    1W        W43191   9.857  25.224   2.576 -0.0253  0.0261 -0.0552
    1W        W43192  19.405  26.741   1.895  0.0553  0.2926  0.0712
    1W        W43193   8.064  22.212   6.321  0.1683  0.1260  0.1805
    1W        W43194  15.299  23.117   1.916  0.1624  0.1905 -0.1905
    1W        W43195  18.903  15.920   0.553  0.1426  0.1245 -0.1675
    1W        W43196  13.745   6.552   8.926  0.0598  0.0533 -0.1733
    1W        W43197  16.891  10.248   2.730  0.0514 -0.2546 -0.0252
    1W        W43198   9.156  30.156   0.329  0.1470 -0.1769 -0.0717
    1W        W43199   4.125   8.903   0.415 -0.0515  0.1856 -0.2173
    1W        W43200   4.188  25.843   7.303  0.5151  0.1670  0.0809
    1W        W43201   6.438  27.432   0.441  0.0039 -0.4235  0.0247
    1W        W43202   7.149   0.491   1.484  0.1783  0.3517  0.0469
    1W        W43203  19.949   5.763   1.730 -0.0988  0.3556 -0.0546
    1W        W43204  16.687  22.036   7.934 -0.1750  0.0224 -0.1693
    1W        W43205   7.836  10.004   2.428  0.0746 -0.2445 -0.2127
    1W        W43206  18.588  25.176   7.715 -0.0435 -0.2764 -0.1567
    1W        W43207  28.757   1.366   7.026 -0.1210  0.0060 -0.1126
    1W        W43208  14.237  24.172   7.328  0.1365 -0.0275 -0.3070
    1W        W43209  17.480   4.260   1.400  0.0017  0.2103  0.0933
    1W        W43210  28.114  28.142   7.732 -0.0113 -0.2389 -0.0473
    1W        W43211   4.410   6.379   8.249  0.2725  0.2279  0.0088
    1W        W43212  23.177  15.749   7.356  0.0509  0.2170 -0.0784
    1W        W43213  25.960  20.062   9.201  0.0343  0.2571  0.1418
    1W        W43214  11.443  16.538   6.929  0.1815 -0.1446 -0.2076
    1W        W43215   9.333   2.969   0.788  0.0411 -0.1705  0.0442
    1W        W43216  27.161  17.536   7.015 -0.2843  0.2101  0.4006
    1W        W43217   2.377  17.014   0.538  0.0879 -0.1571  0.2433
    1W        W43218  27.838   0.926   1.135 -0.0791  0.1105  0.2820
    1W        W43219   5.483  11.023   2.307 -0.2922  0.3758  0.0569
    1W        W43220  20.651  20.938   8.412 -0.0515  0.1881 -0.0421
    1W        W43221  20.590   2.607   7.689 -0.1773  0.1772  0.3779
    1W        W43222   0.128   6.346   0.013 -0.1665  0.2172  0.0535
    1W        W43223   7.389  27.527   9.333  0.0585  0.1469 -0.0158
    1W        W43224   4.729  22.676   0.364 -0.2434  0.2092 -0.3735
    1W        W43225  18.322   0.615   3.294  0.2551  0.0596 -0.1491
    1W        W43226  10.829  25.216   0.696  0.1315  0.3249  0.1295
    1W        W43227   7.251  26.690   9.099  0.1777 -0.2451 -0.0493
    1W        W43228  10.343  14.661   0.944  0.0683 -0.3816 -0.2553
    1W        W43229  28.731  18.737   6.180 -0.0080  0.1846 -0.1308
    1W        W43230  29.094  20.927   9.045 -0.1387 -0.1244 -0.4722
    1W        W43231   8.044   7.680   0.146 -0.2938  0.2314  0.0076
    1W        W43232   7.478  18.886   8.930 -0.0929  0.0724 -0.3427
    1W        W43233  14.389   3.336   8.886 -0.1396  0.0120  0.0357
    1W        W43234   3.342  25.843   1.787 -0.0429 -0.2678  0.1860
    1W        W43235  14.762   9.424   7.884  0.2550 -0.2533 -0.2161
    1W        W43236  10.905  10.054   0.748  0.1732 -0.0910 -0.0362
    1W        W43237  16.866  13.032   1.294 -0.4676 -0.2728  0.0102
    1W        W43238  18.240  21.521   8.823 -0.1337  0.0043  0.1294
    1W        W43239  21.585  17.212   2.150 -0.1582  0.0176  0.1336
    1W        W43240  10.938  23.246   0.639  0.2130 -0.2474  0.0083
    1W        W43241   8.258   3.471   0.417 -0.0569 -0.1207  0.2505
    1W        W43242   3.006  16.251   0.234  0.1379 -0.1534 -0.2757
    1W        W43243  16.311  10.050   8.565  0.6122  0.1816  0.0938
    1W        W43244  24.610  23.174   8.107  0.2863 -0.1908  0.3144
    1W        W43245  22.495  21.168   8.351  0.0355 -0.2119  0.0637
    1W        W43246   7.350  19.538   7.522  0.3405  0.1312  0.1310
    1W        W43247  27.931  27.585   1.734 -0.0669 -0.1880 -0.0278
    1W        W43248   6.717  29.081   6.709  0.3081  0.0164 -0.3492
    1W        W43249   7.415  18.160   7.316  0.1060  0.2541  0.0278
    1W        W43250   6.412  24.975   8.231 -0.1142 -0.3081  0.0507
    1W        W43251  22.179  10.253   2.297  0.0620  0.2567 -0.2596
    1W        W43252   5.854  15.119   8.824 -0.0912 -0.1708  0.0860
    1W        W43253  12.583  28.509   2.683  0.0268  0.0119  0.1514
    1W        W43254  12.048  24.010   7.208 -0.3520 -0.1140  0.1031
    1W        W43255  17.852  18.653   0.833  0.2200 -0.1248 -0.0308
    1W        W43256  30.134  19.596   5.515 -0.2184 -0.2951  0.1924
    1W        W43257  10.973  12.545   7.438 -0.2750 -0.4670  0.0597
    1W        W43258   3.421  12.693   7.694 -0.2485 -0.0004 -0.2701
    1W        W43259   5.030   8.593   3.407  0.3292  0.0618  0.1754
    1W        W43260  21.941   5.317   3.250  0.0047  0.0903  0.2985
    1W        W43261  13.769  26.779   0.293  0.0667  0.3987 -0.3664
    1W        W43262  13.375  29.194   8.641  0.1308  0.0119 -0.0907
    1W        W43263   4.543  29.825   2.808 -0.0181  0.0456 -0.1278
    1W        W43264   9.823  25.583   6.956  0.1833 -0.2229 -0.3374
    1W        W43265  19.287   2.155   2.302 -0.2945 -0.0596 -0.1341
    1W        W43266   2.831   3.757   6.926 -0.0287  0.1904  0.1916
    1W        W43267  19.681  30.088   8.984  0.0719 -0.0998  0.2163
    1W        W43268   8.089  18.174   7.541 -0.3661 -0.0474  0.0016
    1W        W43269  10.619  28.166   1.764 -0.2123  0.4621 -0.1553
    1W        W43270  20.163   7.650   6.835 -0.1213  0.1069 -0.4194
    1W        W43271  29.802  21.126   6.446 -0.0484  0.2489 -0.3204
    1W        W43272  21.594  19.749   2.574 -0.4035 -0.1938 -0.2004
    1W        W43273   1.921  15.916   6.369  0.2296 -0.0290 -0.2019
    1W        W43274  22.640  17.988   6.883  0.2003 -0.1467 -0.1429
    1W        W43275   5.254  20.472   2.022 -0.1987  0.1228 -0.1397
    1W        W43276  28.113  17.793   8.848 -0.0130 -0.0843  0.1523
    1W        W43277  25.031   4.826   1.126  0.1696 -0.0178 -0.0097
    1W        W43278  29.988   2.684   9.000 -0.1193 -0.2272  0.0026
    1W        W43279  11.374  19.113   1.856  0.0727 -0.0872 -0.1477
    1W        W43280   3.402   4.241   0.135 -0.2395 -0.1287  0.0542
    1W        W43281  13.383   2.440   4.589 -0.1666  0.4061  0.0425
    1W        W43282  23.369   5.274   3.558 -0.2810 -0.1396 -0.0963
    1W        W43283  13.425  13.542   1.211  0.0019  0.0085 -0.1005
    1W        W43284  14.517   0.582   2.203  0.0042 -0.0565 -0.1703
    1W        W43285   9.039  23.518   1.906  0.2609 -0.0669  0.1254
    1W        W43286  24.991  24.777   7.081 -0.0004 -0.1700 -0.1184
    1W        W43287  18.969  11.208   0.656  0.0103 -0.1491 -0.0980
    1W        W43288  27.832   7.818   8.202  0.0335 -0.0784 -0.1950
    1W        W43289  15.414  12.770   8.197  0.0690  0.0423  0.1592
    1W        W43290  28.004  15.414   2.374  0.0882 -0.1856 -0.2235
    1W        W43291  20.092  27.084   0.920  0.0897 -0.0717 -0.1732
    1W        W43292  10.651   6.628   2.477  0.1898 -0.0172  0.5248
    1W        W43293  12.473  24.040   7.389  0.0917  0.1583 -0.2295
    1W        W43294   6.064   6.689   9.400  0.1747  0.1434 -0.0574
    1W        W43295   1.768  27.953   1.746 -0.2765  0.3054  0.1879
    1W        W43296  13.581   8.217   0.801 -0.0136 -0.2568  0.0518
    1W        W43297  26.051  26.311   0.270 -0.0713 -0.0169 -0.1894
    1W        W43298  15.499   6.614   9.108  0.0607 -0.3562 -0.1087
    1W        W43299  29.112  16.974   2.273 -0.0847 -0.1368  0.1934
    1W        W43300  16.243  23.856   0.675 -0.1553  0.1491  0.1341
    1W        W43301  11.255  13.763   1.584  0.1275 -0.0261  0.0764
    1W        W43302  19.135  11.470   8.447  0.2497  0.1328 -0.0626
    1W        W43303   3.814   6.785   0.250 -0.1299  0.0098  0.1269
    1W        W43304  21.151  17.460   1.417 -0.0396 -0.0751  0.3356
    1W        W43305   0.116  20.194   0.946 -0.0237  0.0705 -0.1487
    1W        W43306  29.168   4.805   6.966 -0.0758  0.0488 -0.0426
    1W        W43307  28.067   4.109   9.360  0.2904 -0.1439  0.3738
    1W        W43308   7.818  20.196   7.871 -0.0413  0.2237 -0.0086
    1W        W43309   0.345   6.258   0.436 -0.3662 -0.0262  0.1213
    1W        W43310  22.394   1.586   0.623  0.1228  0.1022 -0.2835
    1W        W43311  29.282  25.350   0.143  0.2398  0.0053  0.3276
    1W        W43312  29.362  21.858   8.178  0.4167 -0.4566  0.0690
    1W        W43313  28.261   2.250   1.236 -0.1793 -0.2078  0.2707
    1W        W43314  28.445  24.875   9.244 -0.3317 -0.0495  0.0938
    1W        W43315  27.226  29.153   2.937 -0.1072 -0.0479 -0.2890
    1W        W43316   4.533   1.553   8.074  0.2775  0.0762 -0.3364
    1W        W43317  10.750  25.393   8.177 -0.3279 -0.1758  0.0012
    1W        W43318  25.785   7.081   8.703 -0.0629 -0.0368 -0.0029
    1W        W43319  15.678   3.514   1.464 -0.1445  0.0727 -0.0657
    1W        W43320   2.540  28.248   1.117 -0.0545 -0.0452 -0.1034
    1W        W43321  21.971   5.773   2.063 -0.0094 -0.1140  0.2668
    1W        W43322  26.949  15.422   7.978 -0.2127 -0.1356 -0.2520
    1W        W43323  28.551  18.704   1.170 -0.2326 -0.1546  0.0708
    1W        W43324   2.258   6.360   7.550 -0.3259  0.2466  0.1732
    1W        W43325   7.642   1.715   7.933  0.1637  0.1821 -0.2633
    1W        W43326  16.694  17.652   7.893 -0.1795  0.0822 -0.2047
    1W        W43327  25.466  14.353   9.362 -0.1039  0.0294  0.0176
    1W        W43328   3.694  29.579   7.133  0.0072  0.0326 -0.0948
    1W        W43329   1.932  20.934   6.758  0.0957  0.1555  0.0431
    1W        W43330  25.835   0.128   1.464 -0.2593  0.0736 -0.0478
    1W        W43331  29.833  15.739   6.353  0.2447 -0.1830 -0.2197
    1W        W43332  17.030  10.244   7.658 -0.1403 -0.0623 -0.0553
    1W        W43333  13.672  23.603   1.467 -0.0153 -0.0258  0.1360
    1W        W43334  22.981  11.597   2.062 -0.2217  0.2768  0.1754
    1W        W43335  25.707  19.144   6.342  0.0704 -0.0329 -0.1578
    1W        W43336  13.886  20.646   0.839  0.2007  0.0328 -0.0427
    1W        W43337  22.680  18.277   8.059 -0.0034 -0.2595  0.0821
    1W        W43338   3.898   8.489   0.499 -0.2463 -0.2675 -0.0412
    1W        W43339  22.807   1.922   2.621 -0.0173  0.1262 -0.1636
    1W        W43340  11.162  11.718   0.438  0.0948  0.0173  0.0078
    1W        W43341   0.569  20.414   1.116 -0.1382  0.1936  0.0378
    1W        W43342  26.015  14.483   8.052  0.1706  0.2811 -0.2375
    1W        W43343   3.120   3.170   7.394 -0.3394  0.1854  0.0858
    1W        W43344  21.788   8.405   1.228 -0.0027  0.2155  0.0131
    1W        W43345  21.241   3.417   2.619  0.2887 -0.1561  0.1355
    1W        W43346  10.179  12.452   7.917  0.0491  0.0662 -0.3349
    1W        W43347   2.011   9.815   7.636  0.1893 -0.1692 -0.0987
    1W        W43348  16.405  13.400   8.256  0.2363  0.0076  0.2589
    1W        W43349  28.390  13.971   6.206 -0.0564  0.0502 -0.0433
    1W        W43350  27.546  18.422   6.685  0.0487  0.0281  0.1546
    1W        W43351   1.439   6.641   2.040  0.0117 -0.0153  0.2386
    1W        W43352  23.895  21.247   8.074  0.3567  0.2438  0.0708
    1W        W43353  18.004  23.216   2.554 -0.0885  0.2758  0.0155
    1W        W43354  17.322   5.305   3.161 -0.1840 -0.1948  0.5822
    1W        W43355   7.687  17.911   9.169 -0.0924  0.3025  0.5684
    1W        W43356  24.973  12.379   9.163 -0.2628 -0.0652 -0.1052
    1W        W43357  18.689  29.672   6.751 -0.0149  0.0777  0.1551
    1W        W43358   8.725  20.010   6.767  0.0696  0.1629  0.0134
    1W        W43359  16.084   5.158   8.242 -0.0293  0.1233  0.1878
    1W        W43360  21.885  19.207   1.214 -0.0012  0.3769 -0.0197
    1W        W43361  18.208  10.393   1.482 -0.1399 -0.1653 -0.1620
    1W        W43362   2.656   3.121   2.536 -0.0114 -0.1410  0.0529
    1W        W43363   6.980  29.053   2.215 -0.0305  0.0470  0.2264
    1W        W43364   4.825  26.091   0.659 -0.0285 -0.1176  0.3940
    1W        W43365  11.127  14.420   7.210 -0.3067 -0.0679 -0.1823
    1W        W43366   5.333  19.815   6.986 -0.0727  0.1103  0.0311
    1W        W43367  15.728   8.803   2.593  0.0215  0.2429  0.2624
    1W        W43368  15.322   7.814   8.255 -0.2445  0.3185 -0.0230
    1W        W43369  28.589  17.210   5.494 -0.2524  0.0191  0.0556
    1W        W43370   0.095  13.548   6.180  0.3244 -0.2509 -0.2466
    1W        W43371  24.393  17.371   1.262 -0.4368  0.1504  0.0827
    1W        W43372   8.774  24.886   2.701 -0.2429  0.2928  0.0425
    1W        W43373  13.302  25.502   2.406 -0.3494  0.3159  0.2294
    1W        W43374   3.977  18.914   8.808 -0.0519  0.1639 -0.4044
    1W        W43375  25.645   5.616   7.380  0.0579  0.3622 -0.2090
    1W        W43376   4.023  23.159   8.937  0.0280  0.2389 -0.0309
    1W        W43377  21.535   9.619   7.570 -0.0969 -0.2218  0.0882
    1W        W43378   4.474  18.429   5.473 -0.0126 -0.1981  0.0114
    1W        W43379  13.367  18.111   7.561 -0.1348 -0.1042  0.2091
    1W        W43380   5.733  28.417   1.974  0.0175 -0.0986 -0.0512
    1W        W43381   2.148  28.522   2.054  0.0016  0.0132  0.2221
    1W        W43382  10.737  24.576   2.118  0.2465  0.0461  0.2543
    1W        W43383   8.261   5.670   0.746  0.3093 -0.3706  0.3093
    1W        W43384   7.790  22.857   2.128 -0.1316  0.1400  0.3179
    1W        W43385  17.028   8.297   0.509 -0.1806 -0.0303  0.1405
    1W        W43386  12.011   5.244   8.144 -0.1723 -0.3061 -0.2199
    1W        W43387  26.437  16.643   0.692 -0.2272  0.0663  0.0584
    1W        W43388  15.062  24.608   8.862 -0.0060 -0.0681 -0.1645
    1W        W43389   8.552  26.828   6.478 -0.0686 -0.1115 -0.1916
    1W        W43390   6.728  28.638   7.198  0.0740  0.0892  0.1320
    1W        W43391  11.458  14.334   2.075  0.2326  0.0379  0.1286
    1W        W43392  22.265  22.091   2.297 -0.0145 -0.0707  0.0431
    1W        W43393   3.056   4.478   2.181 -0.1376 -0.0468  0.3087
    1W        W43394   5.867   8.814   8.440  0.1365 -0.3443 -0.0597
    1W        W43395  19.038  29.610   7.602  0.3918  0.0371  0.0627
    1W        W43396  26.561  27.935   7.671 -0.0055 -0.0772  0.2730
    1W        W43397   1.751  16.250   8.101  0.0670 -0.2646 -0.0512
    1W        W43398  29.301  14.269   5.075  0.0355  0.0538 -0.0199
    1W        W43399  12.420  22.192   1.765 -0.0179  0.0694 -0.1955
    1W        W43400   1.471  23.749   5.595  0.1528  0.1743  0.1888
    1W        W43401  19.654  21.751   8.954 -0.0772  0.3346  0.0083
    1W        W43402  22.427  22.633   1.233  0.0958  0.2054 -0.0935
    1W        W43403  12.572  25.204   6.704 -0.0494  0.1796  0.2291
    1W        W43404  23.736   2.856   1.306  0.2722  0.2282 -0.0428
    1W        W43405  24.509  22.901   8.520  0.1484  0.3052  0.0458
    1W        W43406  16.335  18.467   9.337 -0.2958 -0.2555 -0.1211
    1W        W43407  27.763  11.739   9.226  0.3778  0.0824 -0.5433
    1W        W43408  28.189   8.329   9.058  0.1848 -0.0664  0.1285
    1W        W43409  14.812  12.193   8.900  0.1990  0.0046 -0.0942
    1W        W43410  10.011  17.959   2.256  0.0801 -0.3112 -0.2995
    1W        W43411  16.044  26.059   7.138 -0.0484  0.0470 -0.1619
    1W        W43412  12.284  29.079   0.015  0.0763  0.2937 -0.1861
    1W        W43413  10.534  11.120   9.222 -0.1735  0.0719 -0.2332
    1W        W43414   8.365   5.398   1.344  0.0816 -0.0663  0.1230
    1W        W43415  14.614   0.003   2.110 -0.1625  0.1370  0.0203
    1W        W43416  22.178  10.106   8.854  0.1503 -0.3332  0.1454
    1W        W43417   6.904  14.677   0.768  0.0353  0.0002  0.2021
    1W        W43418  16.881   9.964   1.136 -0.3622 -0.3317 -0.0779
    1W        W43419  15.038   7.570   1.294 -0.0048  0.0685  0.0476
    1W        W43420  12.056  28.064   2.406  0.2524 -0.1046 -0.0201
    1W        W43421  25.135  27.170   7.656  0.0157  0.0623  0.4139
    1W        W43422   8.359  26.165   2.963  0.2922  0.0639  0.0366
    1W        W43423  28.365  24.544   7.885  0.3698  0.2139 -0.1149
    1W        W43424  24.860   6.390   1.402 -0.0094 -0.0264 -0.2150
    1W        W43425  10.551  19.699   2.132 -0.1107  0.1384  0.2032
    1W        W43426  13.197  24.603   7.231 -0.1089 -0.2029  0.2768
    1W        W43427  30.058  27.614   7.196  0.2078  0.0224  0.5448
    1W        W43428   5.766  27.495   9.002  0.3820  0.3336 -0.0935
    1W        W43429  20.841   7.469   8.883 -0.0191 -0.0860 -0.5352
    1W        W43430  18.056  23.785   0.563 -0.0462 -0.5093  0.0432
    1W        W43431   2.593  20.736   6.019 -0.0152  0.2554  0.0073
    1W        W43432   1.104  11.131   9.364  0.0623 -0.0580  0.1325
    1W        W43433  24.626   5.566   1.561 -0.1472  0.0866  0.0167
    1W        W43434  23.652  13.559   8.784  0.1221  0.2999 -0.0094
    1W        W43435  25.502   7.149   2.158 -0.4169 -0.0280  0.1109
    1W        W43436  15.209  13.225   0.070  0.1912 -0.0271 -0.1318
    1W        W43437  26.971  10.872   0.990  0.2656 -0.0226 -0.0811
    1W        W43438  29.533  20.568   7.724  0.2425 -0.0731  0.0559
    1W        W43439  29.127  18.168   8.498 -0.2283 -0.4521  0.0756
    1W        W43440   5.535   0.308   7.710  0.1128 -0.2245 -0.0139
    1W        W43441  20.528  26.395   2.170 -0.1208 -0.1099  0.0006
    1W        W43442   4.581  26.687   6.178 -0.2537 -0.0428 -0.3597
    1W        W43443   3.389   1.651   1.694 -0.2262  0.0327  0.1438
    1W        W43444  10.295  28.615   2.732 -0.0891 -0.1493  0.0330
    1W        W43445  12.973   3.127   8.601  0.3852 -0.2640 -0.4304
    1W        W43446  10.332   0.240   7.423  0.1642 -0.3561  0.1066
    1W        W43447  19.735   8.137   7.762  0.0111  0.0585 -0.0354
    1W        W43448   8.578  25.361   2.739 -0.1914 -0.1617  0.1811
    1W        W43449  28.403  22.517   1.395  0.2069  0.0142 -0.1042
    1W        W43450  12.213  22.395   7.863  0.0359  0.1123 -0.2478
    1W        W43451   0.352  15.105   9.270 -0.0191 -0.2081  0.1099
    1W        W43452  21.755   4.487   7.507 -0.1235  0.0067  0.0380
    1W        W43453   9.270  11.428   2.440  0.0246 -0.2223 -0.0703
    1W        W43454   8.616   9.627   3.449  0.0259  0.1081 -0.2871
    1W        W43455   4.164  29.788   3.125  0.1817  0.0618 -0.0517
    1W        W43456  25.780  18.673   6.323  0.2378  0.0810 -0.0742
    1W        W43457   3.258  22.837   1.129 -0.2541  0.1369 -0.1414
    1W        W43458  25.689   9.883   1.447  0.3723 -0.0507 -0.1633
    1W        W43459  13.648  22.265   7.162  0.4324 -0.1182  0.1602
    1W        W43460  26.404   3.847   8.060 -0.1496 -0.3546  0.2561
    1W        W43461  11.199  14.936   0.667  0.3266 -0.2203 -0.0843
    1W        W43462  28.102   2.553   6.603  0.3692  0.0891  0.2884
    1W        W43463  12.589   8.118   8.682 -0.0705 -0.2555  0.3516
    1W        W43464  16.227  18.099   1.850 -0.3571  0.1704  0.1235
    1W        W43465  22.558  17.464   7.077  0.2750  0.1767 -0.1243
    1W        W43466  12.262  23.588   1.206 -0.0571 -0.1664  0.2294
    1W        W43467   7.358  17.314   1.622  0.2544 -0.0211 -0.1357
    1W        W43468  21.122  17.767   7.011  0.1420 -0.0272  0.1398
    1W        W43469   8.116  24.429   0.874 -0.1401  0.3918  0.3426
    1W        W43470  17.904  25.291   9.021  0.1638  0.1649 -0.2243
    1W        W43471  17.710  20.544   1.699  0.0608  0.1373 -0.3987
    1W        W43472  23.482   2.306   7.750  0.1289  0.0310  0.0267
    1W        W43473  22.367  29.636   0.180 -0.0230  0.2323  0.1395
    1W        W43474  26.771  10.853   8.009  0.1118  0.1627 -0.2871
    1W        W43475  10.802  12.143   2.297  0.0794 -0.0021  0.3195
    1W        W43476   6.110   7.858   3.323  0.1655 -0.1743 -0.2399
    1W        W43477  24.613  13.745   5.303 -0.0773 -0.0114 -0.0638
    1W        W43478   3.556  29.008   1.568  0.0975 -0.0922 -0.1001
    1W        W43479  22.069  22.215   0.961 -0.1348  0.0522 -0.2020
    1W        W43480   0.348  20.475   0.045  0.1494  0.0635  0.1061
    1W        W43481  23.581   3.453   1.462  0.4047 -0.2268 -0.0783
    1W        W43482  21.572  22.328   0.791  0.0728 -0.1899  0.2433
    1W        W43483  18.647  10.645   1.801 -0.2371  0.1204  0.0020
    1W        W43484  26.525  19.060   8.734  0.0465 -0.1259 -0.1233
    1W        W43485   0.456   3.674   7.023  0.3371 -0.0031  0.0453
    1W        W43486  17.171  25.371   0.204  0.2016  0.0606  0.0061
    1W        W43487  16.313  17.480   8.333 -0.2500 -0.0480  0.2220
    1W        W43488  19.130   4.704   2.148 -0.1793  0.2626 -0.1715
    1W        W43489   1.905  18.971   8.418  0.2059  0.1540  0.1233
    1W        W43490   3.086   5.175   8.356 -0.0128 -0.4539  0.1873
    1W        W43491  24.846   4.836   8.498  0.2762 -0.2325  0.1409
    1W        W43492  23.817  17.086   6.281 -0.0613  0.2474 -0.1521
    1W        W43493   7.806   9.657   9.063  0.1964 -0.0814  0.1149
    1W        W43494  26.327  10.363   8.717 -0.3783  0.2562 -0.1678
    1W        W43495  16.565  18.027   8.265 -0.3989  0.2861 -0.2402
    1W        W43496  29.405   3.027   7.729  0.1162 -0.3010 -0.0979
    1W        W43497  16.053   1.896   3.560  0.1577 -0.0390 -0.1898
    1W        W43498   0.738  15.939   7.652 -0.2177 -0.2780  0.1453
    1W        W43499  19.881  12.794   6.624  0.2915  0.0666 -0.1921
    1W        W43500   5.771  10.164   0.655 -0.0873  0.3941  0.3193
    1W        W43501  22.761  12.321   1.975  0.0552  0.0608  0.0724
    1W        W43502  28.210  26.380   6.605  0.1539 -0.0819 -0.1305
    1W        W43503   3.322  17.533   0.789 -0.0734  0.2084 -0.1016
    1W        W43504   1.621  25.299   0.101 -0.2356 -0.1122 -0.0357
    1W        W43505  19.398   8.598   0.874 -0.1699 -0.1392  0.2248
    1W        W43506  17.935  29.864   0.685 -0.0990 -0.0487 -0.1741
    1W        W43507  12.028  16.382   1.252  0.2923  0.2249 -0.1788
    1W        W43508  29.440  15.714   7.301 -0.0826  0.0907  0.0667
    1W        W43509   5.800  16.995   7.272 -0.2115 -0.0163 -0.2998
    1W        W43510   9.435  29.287   0.884 -0.0939  0.3503  0.0018
    1W        W43511  19.396  28.930   1.760 -0.0240 -0.0342 -0.0735
    1W        W43512   7.093  18.263   9.336 -0.1140  0.3382 -0.1461
    1W        W43513   0.067  18.598   0.673 -0.1973 -0.1082 -0.1031
    1W        W43514  11.484  28.860   7.289  0.2725  0.0233 -0.0217
    1W        W43515  22.122  24.115   1.198 -0.2740 -0.2796  0.2401
    1W        W43516   9.388   5.345   2.851 -0.2905  0.0015 -0.0339
    1W        W43517  19.204  23.874   1.611  0.0883  0.0768  0.1465
    1W        W43518  11.325  15.415   8.167  0.0776 -0.1516 -0.1351
    1W        W43519  28.683  10.136   7.401 -0.1313  0.3013 -0.0768
    1W        W43520  26.592  12.827   0.117 -0.1821  0.1074 -0.0963
    1W        W43521  16.164  15.741   8.438  0.1700 -0.1864 -0.1458
    1W        W43522   5.364  20.120   0.266  0.3104 -0.2977  0.1218
    1W        W43523  19.353   1.233   7.053  0.0845  0.1704 -0.0176
    1W        W43524   2.604   8.595   0.553 -0.3535 -0.0515 -0.0380
    1W        W43525  11.530  20.784   0.562  0.0023 -0.1719  0.0277
    1W        W43526  19.634  27.815   2.747 -0.3415  0.4613  0.2815
    1W        W43527  26.027  21.360   1.008  0.0560  0.0139  0.0247
    1W        W43528   0.592  13.670   1.310  0.0361 -0.1404  0.2471
    1W        W43529  25.398   1.341   3.265  0.0431  0.2436 -0.6627
    1W        W43530  26.626   1.839   6.215 -0.0139 -0.5092  0.0414
    1W        W43531   9.490   3.769   3.944 -0.0255  0.0717  0.1309
    1W        W43532   1.368  20.942   5.692 -0.0328  0.0636 -0.0012
    1W        W43533  20.425  21.018   7.149  0.0282 -0.1517  0.0970
    1W        W43534  18.588  14.850   8.405  0.0901  0.0569  0.1597
    1W        W43535  11.375  13.990   7.866 -0.0039 -0.0022  0.2342
    1W        W43536  13.805  11.300   1.478 -0.1498 -0.2118  0.1010
    1W        W43537   1.106  21.212   8.031 -0.2530 -0.2137  0.1430
    1W        W43538   7.262   5.484   0.265  0.3005 -0.2387 -0.3833
    1W        W43539  15.165  22.612   0.615 -0.2994 -0.0877  0.1266
    1W        W43540  25.324  22.376   6.442  0.1298  0.0808  0.1710
    1W        W43541   6.748  26.568   8.857 -0.1161 -0.2395 -0.1041
    1W        W43542  14.237  12.527   7.593 -0.1107  0.0144  0.1419
    1W        W43543  19.189   1.462   0.719  0.1505  0.1607 -0.0491
    1W        W43544  22.168  17.212   1.480 -0.0349 -0.0614  0.0545
    1W        W43545   8.162   9.914   0.927 -0.2189  0.0367 -0.0497
    1W        W43546  14.395   6.031   1.676  0.0070 -0.1304 -0.0142
    1W        W43547  14.767  24.451   2.024 -0.0822  0.0875  0.2357
    1W        W43548  28.911  29.713   2.547  0.2850  0.3548 -0.1518
    1W        W43549   9.390  26.975   0.482 -0.0125 -0.2333  0.0881
    1W        W43550  22.455  15.906   1.304  0.0080 -0.2412  0.2259
    1W        W43551  27.807  15.111   7.938 -0.0863  0.2387  0.1458
    1W        W43552  21.322   3.803   2.968 -0.3182  0.3306  0.1378
    1W        W43553  16.396  25.635   8.384  0.0392 -0.2276  0.0151
    1W        W43554  18.635  16.011   7.022  0.2331 -0.0880 -0.1032
    1W        W43555  28.006   8.790   1.368 -0.3229  0.0599 -0.0507
    1W        W43556  22.895   5.846   7.872  0.2696  0.1809 -0.1782
    1W        W43557  16.827   2.426   2.610  0.1007  0.2622  0.1736
    1W        W43558  11.149   3.589   2.924 -0.1421 -0.2963 -0.1160
    1W        W43559  11.751   5.266   3.285 -0.1384 -0.1005  0.3555
    1W        W43560   5.965  18.878   1.711  0.5935  0.1645  0.0418
    1W        W43561  29.831   2.414   1.132  0.0126 -0.1276 -0.1376
    1W        W43562   2.885  11.186   7.292 -0.1395 -0.0153 -0.1869
    1W        W43563  27.782  13.400   6.034 -0.1720 -0.3579 -0.1069
    1W        W43564  21.231   6.006   7.934  0.0709  0.0608  0.0986
    1W        W43565  23.219   0.764   8.933 -0.3036  0.2509  0.0547
    1W        W43566  11.274  25.552   8.146  0.0230  0.0255 -0.0146
    1W        W43567  23.916   9.196   9.373 -0.0196  0.0939 -0.1792
    1W        W43568  23.675   2.159   9.402 -0.2901 -0.2480  0.2299
    1W        W43569   8.471   2.414   2.420 -0.1381  0.3494  0.1618
    1W        W43570   0.613  20.780   6.130  0.0498 -0.0793  0.0293
    1W        W43571  12.550   9.441   7.900 -0.3441 -0.1527 -0.1097
    1W        W43572   9.296  17.241   8.374  0.0816  0.1687  0.3444
    1W        W43573  25.274  16.790   6.267 -0.3162 -0.3563 -0.1360
    1W        W43574   5.055   1.763   7.463 -0.1686  0.1293  0.1012
    1W        W43575   7.372  13.935   8.033 -0.1946 -0.2860  0.1877
    1W        W43576  12.682   7.619   0.108 -0.5148 -0.1013  0.0146
    1W        W43577  20.403   1.743   0.991  0.3737 -0.2108  0.0151
    1W        W43578   9.584  10.984   2.705 -0.1610  0.1734  0.1448
    1W        W43579  15.576  28.151   1.788  0.1825 -0.1732 -0.0842
    1W        W43580   6.304  15.421   7.936  0.3629 -0.0805 -0.0858
    1W        W43581  25.568  26.013   9.402 -0.0465 -0.1956  0.0189
    1W        W43582  24.267  18.120   7.523  0.3020  0.0920 -0.2960
    1W        W43583   3.625  18.899   8.464  0.0319 -0.3213  0.0297
    1W        W43584   0.976  29.796   1.359  0.0305 -0.2070  0.1004
    1W        W43585  12.462  24.619   9.215  0.0741  0.0411  0.1355
    1W        W43586  24.168  19.119   7.892 -0.1862  0.0493  0.1234
    1W        W43587   8.326  20.900   5.665 -0.1158  0.0560 -0.3691
    1W        W43588  28.475  25.168   8.289  0.3930  0.2518 -0.0271
    1W        W43589  26.681  26.475   7.386 -0.0012  0.1713  0.1381
    1W        W43590  30.135  12.052   8.864  0.1251  0.2087 -0.1552
    1W        W43591  14.265   6.801   7.372 -0.0553 -0.1778  0.1551
    1W        W43592   1.390   3.009   7.717 -0.2993 -0.0478  0.1193
    1W        W43593   4.757  25.932   6.568  0.2181 -0.2199 -0.0084
    1W        W43594  28.011  17.448   5.301  0.0223  0.0991  0.1667
    1W        W43595   3.231   6.744   8.993 -0.0003  0.1185 -0.1253
    1W        W43596  29.300  10.755   6.153 -0.1020  0.2364 -0.2033
    1W        W43597   8.196   8.866   8.190  0.2100  0.3290 -0.3674
    1W        W43598   3.717  20.560   1.136  0.2909  0.1605 -0.0405
    1W        W43599  22.228  13.950   8.264  0.1651  0.1343 -0.2198
    1W        W43600  21.821  20.403   6.810 -0.0772 -0.0483  0.0248
    1W        W43601  11.550  15.821   9.362  0.2668 -0.1473 -0.0826
    1W        W43602  13.937  16.518   6.694 -0.0301  0.2989 -0.0784
    1W        W43603  25.118  17.183   9.077  0.3079  0.0297 -0.0254
    1W        W43604  29.961  23.239   6.097  0.3396 -0.0104  0.0660
    1W        W43605   9.335  23.593   7.426  0.2198  0.1525 -0.2021
    1W        W43606   7.852  27.792   6.258  0.2240  0.2297  0.0907
    1W        W43607   4.088  13.044   8.757 -0.0239 -0.0089 -0.1910
    1W        W43608   4.184   2.119   0.749 -0.1756  0.1454  0.1870
    1W        W43609   6.055   0.692   2.468  0.0392 -0.1781  0.0797
    1W        W43610   9.771   3.008   1.210 -0.1164 -0.0735 -0.2249
    1W        W43611  13.996   0.048   8.437  0.1534  0.2198  0.0930
    1W        W43612   3.286  27.373   7.208  0.2944  0.1009 -0.0508
    1W        W43613  15.091  25.607   7.763 -0.4012  0.0963 -0.2274
    1W        W43614  21.011   0.534   8.940 -0.0205  0.0587  0.1555
    1W        W43615  26.701   2.385   7.214  0.1152  0.1724  0.0046
    1W        W43616  19.658  15.035   0.378 -0.0010 -0.0283 -0.1292
    1W        W43617   2.121  27.728   9.325  0.2710  0.0421  0.0209
    1W        W43618   3.533  21.702   7.429 -0.0900  0.1369  0.1320
    1W        W43619  26.051   1.375   0.257 -0.3543  0.0603 -0.1303
    1W        W43620  27.603   2.775   1.935  0.1532  0.4403  0.1283
    1W        W43621  26.975   4.930   7.735  0.0198  0.1423  0.4291
    1W        W43622  17.504  16.477   2.271  0.0474 -0.1230 -0.3227
    1W        W43623   0.917  19.130   8.543  0.4599 -0.0666 -0.0854
    1W        W43624  21.518   7.998   8.161 -0.1098  0.1189 -0.1744
    1W        W43625   0.342   0.628   9.299 -0.1893 -0.1482 -0.0753
    1W        W43626  21.321  25.084   6.456  0.1881  0.1112 -0.0933
    1W        W43627  17.447  18.459   1.406 -0.1343  0.1376 -0.2239
    1W        W43628  16.795  10.549   9.286 -0.0576 -0.0471  0.0599
    1W        W43629  23.737  26.099   9.090 -0.0101 -0.2851  0.1756
    1W        W43630  24.595   2.481   1.471  0.1856  0.0154 -0.2306
    1W        W43631   6.083  26.657   7.383 -0.1039 -0.1448 -0.2595
    1W        W43632  10.121   8.114   3.057  0.1067 -0.1022 -0.0775
    1W        W43633   8.341  21.554   6.452 -0.1504  0.6007  0.0979
    1W        W43634  15.916  24.602   8.622  0.1091 -0.1800 -0.0722
    1W        W43635   3.725  27.108   6.458 -0.0941 -0.1198  0.1695
    1W        W43636  16.811  20.003   0.172 -0.1620 -0.4288 -0.4148
    1W        W43637  24.305  11.750   5.474  0.0681  0.3377 -0.0159
    1W        W43638  21.601   9.070   9.344 -0.0011 -0.1788 -0.2615
    1W        W43639  10.233  18.642   6.646 -0.0722  0.1581  0.2494
    1W        W43640  14.782  10.532   0.184  0.0390  0.0034 -0.1862
    1W        W43641  12.045   5.494   0.401  0.0920 -0.1918 -0.1694
    1W        W43642   3.976   6.005   8.521 -0.5138 -0.0097  0.1270
    1W        W43643  18.907  20.444   7.333  0.1827  0.0669 -0.2987
    1W        W43644  22.873  27.060   1.912 -0.1770 -0.0767 -0.0005
    1W        W43645  12.777  16.304   7.083 -0.0651  0.4112  0.0065
    1W        W43646  23.522  16.123   9.275  0.0808 -0.0319  0.3035
    1W        W43647  19.251   3.345   1.731  0.0172 -0.1279 -0.0681
    1W        W43648  20.981  27.738   0.177 -0.2520 -0.0463 -0.2531
    1W        W43649  17.846  29.805   7.323 -0.2447  0.3828 -0.1209
    1W        W43650   4.428  16.382   7.349 -0.0167 -0.0831  0.2005
    1W        W43651   7.901  20.409   8.980  0.1432 -0.0111 -0.0161
    1W        W43652  11.962  26.056   0.572 -0.0029  0.1172  0.1362
    1W        W43653  12.191   9.802   1.783  0.0064  0.0389  0.0502
    1W        W43654  19.155   5.318   3.529 -0.3115 -0.0436 -0.1276
    1W        W43655  13.917   5.494   1.156 -0.2926  0.0324  0.0473
    1W        W43656   0.614  18.835   0.666 -0.1973  0.0852  0.1774
    1W        W43657  20.510  24.359   7.782  0.1357  0.2928  0.2315
    1W        W43658   6.823  21.867   9.288  0.0692  0.2652  0.1310
    1W        W43659   2.860   2.714   2.332 -0.6173  0.0117 -0.2100
    1W        W43660  26.415  29.906   9.124 -0.2522 -0.1150 -0.2380
    1W        W43661  26.754  22.790   1.575 -0.1590 -0.1903  0.4014
    1W        W43662  26.143   5.852   1.406  0.2802  0.0973 -0.2062
    1W        W43663  21.373  29.492   2.314  0.1143 -0.2934 -0.1689
    1W        W43664  20.790  13.647   1.021  0.3569  0.1596  0.0140
    1W        W43665   0.717   0.719   7.466  0.1182  0.3229  0.1803
    1W        W43666   0.358   4.688   8.861 -0.2212  0.2262 -0.3101
    1W        W43667  21.389  22.095   7.505 -0.1057 -0.2003  0.0993
    1W        W43668  22.467  25.640   2.678 -0.1320 -0.3391 -0.0443
    1W        W43669  15.469  22.843   9.154 -0.0485  0.0838  0.2054
    1W        W43670  27.514   1.727   7.552 -0.1982 -0.1187  0.1203
    1W        W43671   8.891  29.311   0.840 -0.1438 -0.0752 -0.3634
    1W        W43672   6.306   8.133   9.396  0.3178  0.0868 -0.2010
    1W        W43673  14.215  23.855   0.047  0.3381  0.4859  0.1228
    1W        W43674   3.412  26.614   9.272  0.1051  0.3924  0.3594
    1W        W43675   3.055  18.356   5.923  0.1213  0.1560  0.2895
    1W        W43676  21.259   2.572   2.456 -0.0355 -0.0395 -0.3180
    1W        W43677   6.184  26.930   6.893 -0.1351  0.0466  0.1612
    1W        W43678  19.171   4.008   1.366  0.0204 -0.0345  0.0106
    1W        W43679   9.126  26.266   1.083 -0.0057  0.2431  0.0028
    1W        W43680  10.304  28.048   0.147  0.0281  0.4701  0.2168
    1W        W43681   3.485   3.044   8.668 -0.1049  0.1307  0.0460
    1W        W43682   7.384  22.600   0.875  0.3081  0.2137  0.1210
    1W        W43683  20.180  25.911   2.833  0.0034  0.0211  0.3150
    1W        W43684  20.504  17.829   7.161  0.0740 -0.2214  0.1224
    1W        W43685  24.502  12.226   5.435  0.2484  0.2255 -0.3299
    1W        W43686   5.600  20.187   7.203  0.3675 -0.3029 -0.2122
    1W        W43687  28.466   5.219   0.853 -0.0489 -0.0763 -0.0104
    1W        W43688  20.727  16.734   7.014  0.0640  0.1896 -0.1343
    1W        W43689  19.038  16.284   0.272 -0.1402 -0.1371 -0.1828
    1W        W43690  10.950   2.760   7.289  0.0192 -0.3611 -0.1227
    1W        W43691   7.315   3.922   8.485 -0.1014 -0.1211 -0.1394
    1W        W43692   8.792   3.163   2.088 -0.1838  0.1484  0.2112
    1W        W43693   3.274   7.819   7.785  0.0225  0.3330  0.2818
    1W        W43694  25.470  24.771   6.326 -0.1325 -0.2484 -0.0924
    1W        W43695  27.784  25.543   0.685 -0.1986  0.2625  0.0866
    1W        W43696  11.403  16.801   1.410  0.0259  0.0105  0.0752
    1W        W43697  20.018  14.336   7.215  0.0904 -0.5901  0.0070
    1W        W43698   9.837  27.996   6.465 -0.0787  0.0090 -0.0706
    1W        W43699  10.570  16.724   0.121 -0.3154 -0.1082  0.3783
    1W        W43700   2.624  25.264   9.058  0.1571 -0.1006 -0.0891
    1W        W43701   3.512   0.751   1.813 -0.0312 -0.1639 -0.1297
    1W        W43702   9.850  13.735   8.280  0.1955  0.0021  0.5988
    1W        W43703   4.959  10.512   8.322  0.0397  0.0035 -0.0287
    1W        W43704   7.317   6.989   1.377  0.2043 -0.2322  0.0861
    1W        W43705   7.805  10.463   8.588  0.0774  0.2375  0.3150
    1W        W43706   5.293  22.128   8.328  0.1424 -0.0375  0.2806
    1W        W43707  10.921  27.022   2.441 -0.2073 -0.2611 -0.0384
    1W        W43708  26.681  18.697   7.902 -0.0300  0.3343 -0.1482
    1W        W43709  13.754  30.131   1.489  0.0108  0.2222  0.2368
    1W        W43710   5.202  29.248   3.575  0.0017 -0.1542 -0.3075
    1W        W43711   5.132  12.049   1.766  0.0175 -0.4120  0.2618
    1W        W43712   1.986  13.626   7.474 -0.2664  0.0409 -0.3725
    1W        W43713  21.834  14.076   6.527  0.1031 -0.0419 -0.4175
    1W        W43714  14.278  19.755   0.905 -0.1917  0.2857 -0.1881
    1W        W43715   7.062   0.819   8.675 -0.0265 -0.0290  0.0797
    1W        W43716   7.881   3.845   2.479 -0.1575  0.0608  0.0167
    1W        W43717  23.808  15.097   0.605  0.1052 -0.1182 -0.0296
    1W        W43718   6.385   0.351   7.782 -0.1079 -0.1365 -0.0646
    1W        W43719   5.691   9.647   7.872 -0.0084  0.1141 -0.2700
    1W        W43720  26.726   7.044   1.494 -0.1961 -0.2171 -0.1486
    1W        W43721  21.643  26.153   1.450 -0.0264  0.3181  0.0032
    1W        W43722  15.673  10.965   8.078 -0.0737 -0.1196  0.4061
    1W        W43723   6.062  27.073   0.434  0.0788 -0.2323  0.0981
    1W        W43724  16.237   1.411   1.534 -0.1345  0.2823 -0.0521
    1W        W43725  27.237  17.918   8.354  0.0611  0.0237  0.2554
    1W        W43726  21.000   2.408   1.924  0.0538  0.0544 -0.3520
    1W        W43727  12.146  10.725   8.129  0.1275  0.0489 -0.2667
    1W        W43728  13.325  14.081   1.257 -0.0563  0.0739  0.1408
    1W        W43729  18.464   0.305   3.624  0.0684  0.1835 -0.1392
    1W        W43730   1.768   6.618   7.602 -0.0554  0.1479  0.0122
    1W        W43731   7.408   6.570   3.172  0.2132  0.0374  0.2674
    1W        W43732   2.157  22.680   5.906 -0.1116 -0.2598  0.0901
    1W        W43733   2.054  13.425   7.943  0.0408  0.0315 -0.3491
    1W        W43734   9.523   2.932   0.344 -0.2441  0.0345  0.0902
    1W        W43735  27.143  11.968   6.048 -0.3772  0.0058 -0.1301
    1W        W43736  21.776   1.430   2.452 -0.3324 -0.0715  0.1687
    1W        W43737  21.447   0.341   0.731  0.0813  0.0181 -0.1317
    1W        W43738   6.896  19.361   1.979 -0.0226 -0.2401  0.2043
    1W        W43739  24.735   0.811   7.724 -0.0047  0.0993  0.1289
    1W        W43740   3.085  10.888   2.384 -0.0079 -0.3064 -0.3557
    1W        W43741  18.162  17.195   8.662 -0.2975 -0.1570  0.0117
    1W        W43742  22.142   1.764   2.598  0.1128  0.3788 -0.2521
    1W        W43743   2.207  27.412   8.794 -0.1247  0.1609 -0.2905
    1W        W43744  13.433   4.252   8.362 -0.3018 -0.2821  0.0279
    1W        W43745  22.440  24.376   6.526  0.3615 -0.1614  0.0863
    1W        W43746  21.634   4.804   2.226 -0.1099  0.0996 -0.1200
    1W        W43747  25.850  20.697   1.093 -0.0761  0.1419  0.0250
    1W        W43748   2.339  28.297   8.408 -0.0198 -0.0188 -0.0994
    1W        W43749   7.731  15.577   1.430 -0.1782 -0.0334 -0.1874
    1W        W43750  27.432  13.940   6.257  0.2386  0.2195 -0.0938
    1W        W43751   0.729   2.137   8.146 -0.2697  0.1065 -0.1511
    1W        W43752  29.027   3.507   1.606  0.1585 -0.3777  0.1322
    1W        W43753   7.036   2.445   9.226 -0.3344 -0.0778  0.0278
    1W        W43754   5.962   2.771   2.901  0.2627  0.3533 -0.1698
    1W        W43755  13.886  21.849   7.309  0.1070 -0.1184  0.1688
    1W        W43756  18.644   3.518   7.903  0.0320 -0.3755  0.1474
    1W        W43757   7.287  10.037   2.554 -0.0989 -0.0373  0.2551
    1W        W43758  24.463   5.633   8.205  0.0357  0.0265 -0.0863
    1W        W43759  22.889  27.806   8.080 -0.1636 -0.0246 -0.1718
    1W        W43760  24.769  16.861   1.078 -0.1200 -0.2175  0.4394
    1W        W43761  14.146  21.193   7.310  0.1307  0.1005 -0.0041
    1W        W43762   8.054  20.806   8.286 -0.2061 -0.1957  0.1678
    1W        W43763  19.736  19.583   6.990  0.1461 -0.0799  0.0463
    1W        W43764   8.934   7.169   0.643  0.2209 -0.2772 -0.1634
    1W        W43765  10.965   6.458   0.943  0.1880  0.3326 -0.1687
    1W        W43766  29.747   3.615   0.247  0.0184  0.1863 -0.1147
    1W        W43767  28.477  14.109   1.766  0.2043  0.0266  0.4596
    1W        W43768  17.919  15.280   7.717  0.0771 -0.2036  0.0462
    1W        W43769  17.135   3.630   8.927  0.0714  0.2243 -0.1628
    1W        W43770   5.367  24.053   1.340  0.1489  0.3168  0.1337
    1W        W43771   7.162  25.175   7.162 -0.2497 -0.0257 -0.0595
    1W        W43772   4.495  10.127   1.535 -0.0188 -0.1959 -0.2056
    1W        W43773  20.489  29.662   2.937  0.3211  0.1017 -0.0015
    1W        W43774  17.888  22.374   7.210  0.1712  0.1281 -0.1284
    1W        W43775  24.946   1.617   1.733  0.1693  0.0303 -0.0496
    1W        W43776  25.421  19.234   1.989 -0.1355 -0.0214 -0.0342
    1W        W43777  25.189  12.774   8.369  0.0502  0.0815 -0.1312
    1W        W43778  14.086  25.886   1.467 -0.5141  0.1731  0.0615
    1W        W43779   5.199  23.931   0.794 -0.0689  0.0794 -0.1447
    1W        W43780   2.272  14.191   1.001  0.0104 -0.0130  0.0661
    1W        W43781   7.304  27.629   8.163 -0.2803 -0.0316  0.0663
    1W        W43782  15.103   9.539   8.583  0.0988  0.0379  0.1495
    1W        W43783  28.574   9.580   1.064  0.0156 -0.1088  0.0487
    1W        W43784  27.330  24.454   2.843  0.0917  0.1148 -0.0646
    1W        W43785   5.492  20.732   0.241 -0.1833 -0.0431  0.1178
    1W        W43786   1.514  17.991   7.481 -0.1088  0.0791 -0.0875
    1W        W43787  14.807  22.306   1.367  0.0030  0.1177 -0.0109
    1W        W43788   7.977   0.824   1.701 -0.0167  0.1109  0.0156
    1W        W43789   8.857  17.810   7.849 -0.0103  0.1564  0.4196
    1W        W43790  18.660  25.846   8.136  0.1751 -0.2648 -0.3158
    1W        W43791  24.523  27.720   8.693  0.1920  0.1730  0.0493
    1W        W43792  21.553   9.004   6.987  0.1590  0.0884 -0.2296
    1W        W43793  26.863  10.242   1.780  0.1146 -0.0570 -0.2585
    1W        W43794   8.555  26.061   2.162 -0.0852 -0.0792 -0.0508
    1W        W43795  23.224   8.928   1.021 -0.0952  0.0864 -0.1856
    1W        W43796  10.393  10.367   8.285 -0.1123 -0.1479  0.3501
    1W        W43797  26.418   2.880   7.356 -0.2809  0.0683  0.5255
    1W        W43798  29.262  14.586   7.772  0.5576  0.1579  0.0142
    1W        W43799  22.093  17.221   6.141 -0.0688  0.4158 -0.4437
    1W        W43800  25.488  24.304   2.015 -0.3655 -0.2431  0.3278
    1W        W43801  11.948   6.917   8.336 -0.1635 -0.3653 -0.2020
    1W        W43802  14.752  12.808   8.233 -0.1273  0.2247  0.0446
    1W        W43803  18.011  25.781   6.965  0.1018 -0.1293  0.1252
    1W        W43804   0.608  21.431   0.216 -0.2086 -0.1521 -0.3594
    1W        W43805  12.033  12.508   8.237  0.1947 -0.0646  0.0016
    1W        W43806  23.041   2.052   0.046  0.0292  0.0196 -0.0366
    1W        W43807  12.843   6.045   3.084 -0.0988 -0.0812  0.2117
    1W        W43808  29.066  15.868   8.179 -0.1667  0.2863  0.3585
    1W        W43809   6.171  13.563   2.354  0.1523 -0.3504 -0.0702
    1W        W43810  29.627   5.249   2.994 -0.0394 -0.2363 -0.4003
    1W        W43811   9.758   6.539   0.346  0.0300 -0.1360  0.0579
    1W        W43812  15.428  24.964   3.349  0.1387 -0.0621  0.1370
    1W        W43813  24.621   3.950   2.854 -0.0606 -0.1208  0.1424
    1W        W43814   5.295   9.947   7.896 -0.0514 -0.0243 -0.1066
    1W        W43815  20.143   3.788   2.485  0.0994  0.0773  0.1526
    1W        W43816   3.662   5.824   8.824 -0.0925  0.4113 -0.0339
    1W        W43817  28.628   1.349   8.928  0.0379  0.1874 -0.1463
    1W        W43818  14.915   8.528   8.925 -0.1948  0.2296 -0.1219
    1W        W43819  15.929   7.132   0.239 -0.3982 -0.0605 -0.1484
    1W        W43820  28.351  24.218   6.503 -0.1610 -0.1392  0.0040
    1W        W43821  20.312  29.655   1.873 -0.1453 -0.1825  0.0246
    1W        W43822  28.860   9.493   6.659  0.1602  0.1481 -0.0034
    1W        W43823  18.854  16.865   1.299 -0.1673  0.0853  0.1646
    1W        W43824  11.493  12.834   2.532 -0.0832 -0.1556  0.0277
    1W        W43825  15.297  29.557   3.285  0.0885 -0.0183  0.1526
    1W        W43826   6.809  17.406   6.228  0.1894 -0.0175  0.0399
    1W        W43827  23.683  26.124   7.621  0.0082 -0.1129 -0.0844
    1W        W43828  15.091   6.542   0.054  0.2111 -0.0772 -0.0804
    1W        W43829  25.929  26.113   1.469 -0.3423 -0.2564  0.0758
    1W        W43830   7.565   3.472   8.820 -0.1842 -0.0427 -0.3018
    1W        W43831  18.198   4.810   3.202 -0.0130  0.0361 -0.1617
    1W        W43832  14.870   6.710   1.034 -0.1391 -0.0478  0.2346
    1W        W43833  24.060  28.287   6.866 -0.0118 -0.0960  0.0240
    1W        W43834  11.625  22.463   6.974  0.0040  0.1238 -0.0116
    1W        W43835  19.378   9.241   2.011  0.1075 -0.0729  0.0747
    1W        W43836   4.620  10.084   2.047  0.3001  0.2571  0.1545
    1W        W43837  21.479   2.917   9.384  0.2228 -0.2492 -0.2140
    1W        W43838  22.032  25.220   1.282 -0.0922 -0.0703  0.1477
    1W        W43839  26.994   4.403   1.197  0.2002 -0.0530 -0.1420
    1W        W43840  26.279  16.682   0.227  0.0764 -0.3764  0.3446
    1W        W43841  27.019  18.151   0.545 -0.0274 -0.2491  0.0714
    1W        W43842  23.071  13.382   2.040 -0.0876  0.0741  0.1052
    1W        W43843  29.634   5.518   1.883 -0.3204 -0.0637 -0.2496
    1W        W43844  16.835  21.673   2.628  0.2763  0.0225  0.1189
    1W        W43845  24.244  21.167   0.762 -0.1060  0.0783 -0.1224
    1W        W43846  27.905   9.584   6.339  0.6791  0.2039 -0.1581
    1W        W43847  18.458   9.930   1.392 -0.0347  0.0975  0.0856
    1W        W43848   9.169   6.665   7.911  0.3430  0.0703  0.1915
    1W        W43849  20.347   2.185   1.225  0.5224  0.0336  0.2027
    1W        W43850  21.433  10.240   2.783  0.1655 -0.1030 -0.1177
    1W        W43851  12.336   2.936   2.020  0.2516 -0.0820 -0.1213
    1W        W43852  21.011  28.127   6.918  0.1411  0.0078  0.1460
    1W        W43853  11.567  18.705   6.619 -0.1090 -0.0460  0.1218
    1W        W43854  23.121  13.503   1.532 -0.1239 -0.1782 -0.0477
    1W        W43855  15.230   9.169   1.231  0.1883  0.3114 -0.2068
    1W        W43856  14.652   8.249   8.588  0.0928 -0.0039  0.2748
    1W        W43857  30.131  11.868   1.429 -0.1776 -0.1507 -0.3355
    1W        W43858  19.243   9.064   0.291 -0.3886 -0.1173  0.1529
    1W        W43859  26.049   3.896   8.397  0.0241  0.2236 -0.1465
    1W        W43860  12.943  22.678   2.159  0.1648 -0.4047  0.0579
    1W        W43861   4.059  23.324   0.618  0.0993  0.1415 -0.0874
    1W        W43862  25.141   2.794   0.325  0.1689 -0.2070 -0.0887
    1W        W43863  11.957  27.288   8.012  0.2714  0.1722  0.1862
    1W        W43864  28.623   9.316   2.558 -0.1760 -0.1386 -0.0491
    1W        W43865  16.341  16.318   0.278 -0.3488 -0.0533 -0.0197
    1W        W43866   2.980  20.880   7.407 -0.1526 -0.0165  0.0978
    1W        W43867   7.430   1.323   7.171 -0.1270  0.1953 -0.1524
    1W        W43868   9.698  17.296   8.096  0.0602 -0.4631  0.0526
    1W        W43869  15.791  24.264   1.957 -0.2881 -0.0657 -0.0313
    1W        W43870  19.809  25.928   7.660 -0.0464 -0.1917  0.2689
    1W        W43871   2.774   8.889   1.742 -0.0284  0.1219  0.4013
    1W        W43872  12.324   6.784   3.532 -0.0285 -0.0002 -0.0659
    1W        W43873   2.729  12.615   8.923  0.3300  0.1819  0.1880
    1W        W43874  25.436   7.563   6.988  0.1630 -0.1828  0.1822
    1W        W43875   0.150  20.497   6.080 -0.2715 -0.3115 -0.2934
    1W        W43876  15.147  12.693   0.268 -0.1055 -0.1850 -0.1745
    1W        W43877  26.908  24.630   7.776 -0.0634 -0.0003 -0.1999
    1W        W43878  27.295  27.399   0.215  0.0012  0.1752  0.0958
    1W        W43879  26.052  19.193   8.952 -0.0228  0.1028  0.0001
    1W        W43880  17.773  18.368   7.909 -0.1719 -0.1346 -0.1257
    1W        W43881  17.847  10.454   8.212  0.3446 -0.1227 -0.3387
    1W        W43882   0.039  13.760   7.362  0.0451  0.2050  0.0335
    1W        W43883   5.868  11.938   1.898 -0.1662 -0.3217 -0.1981
    1W        W43884   1.537  19.535   1.057 -0.0149  0.3167  0.0996
    1W        W43885  20.907   4.367   6.942  0.0368 -0.2186  0.1863
    1W        W43886   4.550  17.462   6.763  0.0189  0.2489 -0.0263
    1W        W43887  12.969  23.950   1.485  0.5142  0.0712  0.1728
    1W        W43888   0.970  19.978   7.915 -0.0359 -0.1916 -0.2447
    1W        W43889  15.188  27.835   0.188 -0.4099 -0.0586 -0.0590
    1W        W43890   7.098  17.880   2.644  0.0030  0.1253  0.4868
    1W        W43891   6.512  19.070   9.057 -0.3922  0.0174  0.3094
    1W        W43892  18.906   1.979   2.093  0.0131  0.3006 -0.0363
    1W        W43893  23.172  28.759   6.846  0.1590  0.0830 -0.0483
    1W        W43894  19.797  27.706   1.075  0.1693  0.0968  0.0379
    1W        W43895  28.994  29.213   9.245  0.0005  0.0697 -0.0888
    1W        W43896  21.288  22.869   8.136 -0.2819 -0.1559  0.0118
    1W        W43897   3.364  27.208   2.110  0.3029 -0.1394 -0.0107
    1W        W43898  14.862  17.244   0.893 -0.4028 -0.0499 -0.1421
    1W        W43899   6.191  21.504   5.741 -0.0999  0.1972 -0.2035
    1W        W43900  26.712  18.907   7.466  0.1963 -0.0470  0.2892
    1W        W43901   6.156  20.111   5.948 -0.1206 -0.2009  0.0892
    1W        W43902   6.350  10.827   7.903  0.1548  0.1655  0.1649
    1W        W43903  29.781   0.232   2.550  0.1535 -0.0072 -0.2630
    1W        W43904   9.582  11.799   1.091 -0.0081  0.0185 -0.1922
    1W        W43905  15.326   2.309   9.389  0.0857 -0.0779 -0.0898
    1W        W43906  29.987  27.916   1.952 -0.1946 -0.2907  0.5077
    1W        W43907  20.202  23.673   2.095  0.1238 -0.0354 -0.0671
    1W        W43908   2.988  18.784   9.339 -0.1221 -0.0062  0.0060
    1W        W43909   9.159  29.266   1.252 -0.0420 -0.0933  0.1388
    1W        W43910   3.269   9.355   7.632 -0.2254  0.1938  0.1792
    1W        W43911   8.571   0.929   1.190 -0.0759  0.3807 -0.0675
    1W        W43912   4.141   5.422   1.509 -0.2185  0.2452 -0.0319
    1W        W43913   3.578  10.052   1.925  0.2912 -0.0642 -0.1714
    1W        W43914  28.736   1.024   8.076 -0.0046  0.0370  0.0786
    1W        W43915  24.895  10.654   0.270  0.0813 -0.1710  0.1931
    1W        W43916  14.101   1.798   8.617 -0.0911 -0.2788  0.0127
    1W        W43917   1.074  19.032   0.743 -0.1122  0.3737 -0.0263
    1W        W43918  26.945  18.299   8.054 -0.0315 -0.1729  0.2009
    1W        W43919   6.638  11.257   2.706  0.0169  0.0863 -0.1319
    1W        W43920   5.312  16.749   0.781  0.0594  0.0509 -0.1645
    1W        W43921  25.882  12.715   6.486 -0.1635  0.1548 -0.0060
    1W        W43922  23.595   5.329   6.702 -0.0979  0.0515  0.0973
    1W        W43923  19.497   9.589   9.146 -0.0994  0.0326 -0.2287
    1W        W43924  25.449  17.602   8.999 -0.0047 -0.3169 -0.0797
    1W        W43925  16.216  24.241   8.299  0.1397 -0.0555  0.0746
    1W        W43926  28.711   4.812   8.922  0.0048  0.1876 -0.1992
    1W        W43927   3.743  15.547   0.976 -0.0108  0.0524 -0.1381
    1W        W43928  30.122  12.715   0.901 -0.0511  0.1084 -0.2178
    1W        W43929  10.188  29.800   2.653  0.2082 -0.1168  0.0918
    1W        W43930   0.609  26.922   0.837  0.2274  0.0536 -0.1985
    1W        W43931   3.237  11.574   6.013 -0.1830 -0.1867  0.1165
    1W        W43932  27.265   5.798   2.606 -0.0689  0.0484  0.1805
    1W        W43933   6.771  22.092   8.801  0.1403  0.1116 -0.0808
    1W        W43934  22.953   6.070   7.436 -0.1154 -0.1500 -0.1233
    1W        W43935  27.602  15.589   4.786 -0.4697 -0.0379 -0.1259
    1W        W43936  12.816  11.556   9.041 -0.1885 -0.2194 -0.1797
    1W        W43937   4.628  20.799   0.539  0.0401 -0.3051 -0.0408
    1W        W43938  18.266  13.598   0.846  0.0880  0.0264  0.0907
    1W        W43939   9.122  23.605   7.014  0.3959  0.0018 -0.0525
    1W        W43940  25.553  16.739   1.441 -0.5109 -0.1051 -0.5125
    1W        W43941   7.256  21.511   7.149 -0.0561  0.2380 -0.1948
    1W        W43942  10.266  12.544   8.814 -0.1223  0.2734  0.2883
    1W        W43943   1.820  25.729   6.245  0.0708  0.0234  0.0422
    1W        W43944  11.106  26.977   0.273 -0.0502  0.2536 -0.0092
    1W        W43945   0.826  21.876   0.072  0.0155  0.0113 -0.1084
    1W        W43946  18.789  22.640   6.751  0.1080  0.0131  0.0102
    1W        W43947  21.874   7.931   7.534 -0.2977 -0.0542  0.0790
    1W        W43948  21.354  16.535   7.755  0.0175 -0.1775  0.0816
    1W        W43949   8.260  24.765   6.402 -0.1980 -0.0324 -0.0439
    1W        W43950   0.771  25.456   8.962 -0.1225 -0.0485  0.1982
    1W        W43951  13.713  22.663   0.093  0.2821  0.1294  0.3203
    1W        W43952  19.543  19.434   8.665  0.3090 -0.3462 -0.3878
    1W        W43953   7.303  19.748   9.385 -0.2163 -0.0652 -0.1262
    1W        W43954   1.325  26.916   0.349  0.1416 -0.0799 -0.1461
    1W        W43955  16.356  28.099   9.144 -0.0069  0.2047 -0.0939
    1W        W43956  21.995   0.878   8.442 -0.1036 -0.3266  0.0677
    1W        W43957   2.363  12.840   9.269  0.0793 -0.1663 -0.3631
    1W        W43958  29.048  19.823   5.386  0.0661 -0.2762  0.0355
    1W        W43959  10.059   0.880   0.839  0.0738 -0.0094 -0.1739
    1W        W43960  12.597  19.959   8.561  0.2884  0.0825  0.0444
    1W        W43961   2.517  23.665   0.854  0.0745  0.0033 -0.0697
    1W        W43962  25.462  20.697   9.309  0.0028 -0.1272 -0.1411
    1W        W43963  23.590   9.673   1.320  0.0358  0.0296 -0.0926
    1W        W43964  13.327   6.896   3.705  0.1112  0.2289  0.2266
    1W        W43965   7.905  16.292   8.605  0.1294 -0.1069  0.2255
    1W        W43966  14.480   0.309   7.264 -0.0282 -0.1121  0.0496
    1W        W43967   7.075  11.422   3.177  0.1645  0.2729 -0.1960
    1W        W43968  18.048  20.559   0.838  0.2046 -0.0336  0.1085
    1W        W43969  17.492  16.998   1.626  0.0411 -0.0418  0.2226
    1W        W43970  27.594   3.383   8.820 -0.1547  0.0178  0.2719
    1W        W43971  21.775   5.896   9.346 -0.1777 -0.0911  0.2103
    1W        W43972  11.208  15.385   8.671 -0.1166  0.0225 -0.0693
    1W        W43973  21.509  16.076   7.499  0.2151  0.2452 -0.1821
    1W        W43974  25.848  11.423   0.544  0.0359  0.0238 -0.0544
    1W        W43975   3.595   0.762   8.628 -0.1203 -0.0754  0.2247
    1W        W43976   6.453  16.556   1.868 -0.3799  0.1241 -0.3555
    1W        W43977  10.286  28.431   3.350  0.0203 -0.3989 -0.0659
    1W        W43978  23.510   1.095   1.130 -0.0279 -0.1260  0.1967
    1W        W43979  27.914  22.186   0.722  0.3130 -0.2929  0.1622
    1W        W43980   8.714   9.593   0.188 -0.1302  0.1102  0.0848
    1W        W43981  17.322  29.585   8.115  0.1539  0.0038 -0.0284
    1W        W43982   5.483  18.849   5.200  0.0053 -0.1544 -0.3943
    1W        W43983  12.885  20.578   7.196 -0.0676  0.0632 -0.3416
    1W        W43984  25.450  23.138   0.717  0.0969  0.1265 -0.0100
    1W        W43985  13.614  28.536   0.493 -0.3001 -0.1574 -0.0508
    1W        W43986   0.721  25.295   5.936  0.1846 -0.1019 -0.0384
    1W        W43987  16.389  24.517   3.232  0.1270  0.0858  0.5163
    1W        W43988  29.125   0.428   0.989 -0.2547  0.1172  0.5876
    1W        W43989  18.775  11.488   7.401  0.6226  0.0210  0.1920
    1W        W43990  14.819  26.553   0.885 -0.2014 -0.0822  0.1687
    1W        W43991   1.587  15.234   0.574  0.1121 -0.0753  0.1813
    1W        W43992  25.762  13.385   8.027  0.0138 -0.2920  0.0955
    1W        W43993  11.306  29.959   8.496 -0.1028  0.2019  0.1181
    1W        W43994  10.401  28.894   7.263 -0.0449  0.0409 -0.1194
    1W        W43995  14.108  25.988   2.640  0.0817 -0.2525  0.2379
    1W        W43996   6.423  28.914   7.553  0.1966  0.2267 -0.2359
    1W        W43997   7.270   5.488   2.126 -0.0357  0.2752 -0.5311
    1W        W43998   0.350   9.010   7.354 -0.0305  0.0441 -0.1018
    1W        W43999  26.774  21.434   6.777 -0.2318  0.1816  0.0317
    1W        W44000  15.358  23.703   8.847 -0.0114  0.0640  0.1766
    1W        W44001  13.200   5.747   8.788  0.1462  0.0939  0.1104
    1W        W44002  19.777  21.449   8.260  0.3888  0.1135  0.2452
    1W        W44003  24.349   8.011   6.431 -0.3303  0.1192 -0.0798
    1W        W44004  25.032   3.299   0.648  0.3151  0.2132 -0.0306
    1W        W44005  25.644  27.245   2.084  0.1641  0.1421  0.0353
    1W        W44006  29.087  14.588   5.700  0.2429 -0.0929 -0.0740
    1W        W44007  11.849   3.146   0.012  0.2302  0.1895 -0.2209
    1W        W44008  28.976  18.023   8.050  0.4210  0.0575 -0.1784
    1W        W44009   1.049   5.748   3.007  0.1260 -0.1682  0.3772
    1W        W44010  18.327  14.694   6.505 -0.0957  0.0230  0.0583
    1W        W44011  20.549  21.348   8.668  0.1072  0.0153 -0.1340
    1W        W44012  24.027  24.739   7.306  0.2157  0.1660 -0.0701
    1W        W44013  18.238  29.760   6.980  0.1426  0.1804  0.0935
    1W        W44014  18.000  13.911   8.842 -0.2947 -0.0065  0.1732
    1W        W44015  21.032  23.771   1.944  0.0639 -0.1814 -0.0848
    1W        W44016  27.974   2.056   6.807 -0.0191  0.1414 -0.1569
    1W        W44017  25.351  28.746   0.984 -0.3897  0.3440  0.2913
    1W        W44018   3.034  22.983   0.517 -0.0454  0.3214  0.2346
    1W        W44019  18.350  11.714   0.300  0.2217 -0.0201 -0.2881
    1W        W44020  20.500  10.906   7.630  0.1756 -0.4344 -0.0265
    1W        W44021   0.607  16.921   0.257 -0.2586 -0.2856 -0.0883
    1W        W44022   0.767  29.933   0.105 -0.1948  0.2876 -0.1562
    1W        W44023   1.272  14.790   1.529  0.1702  0.1284 -0.0968
    1W        W44024   6.086  15.165   0.100  0.4518 -0.2869 -0.0715
    1W        W44025  19.841  13.989   1.456  0.0869 -0.1198  0.4160
    1W        W44026   1.849  26.203   9.308 -0.1941  0.1027  0.1990
    1W        W44027   1.807   3.831   0.241 -0.0444  0.1760 -0.0475
    1W        W44028  13.090  18.269   2.555 -0.2909  0.2453  0.1382
    1W        W44029  29.959   2.063   2.257  0.3135 -0.2762  0.1362
    1W        W44030   4.544  19.421   6.686 -0.4937 -0.0255 -0.2377
    1W        W44031  19.633  18.129   7.904  0.1570 -0.2652 -0.1214
    1W        W44032   0.611  23.857   0.145  0.0068 -0.1595 -0.0596
    1W        W44033  28.295  18.160   6.999  0.1882  0.1019  0.1421
    1W        W44034  17.992   1.454   3.205  0.1187  0.2907 -0.1219
    1W        W44035  24.831  21.419   0.156  0.0116 -0.1622 -0.2156
    1W        W44036  21.503  28.021   1.476  0.0147  0.0705  0.0751
    1W        W44037  20.318  17.033   1.642  0.2971  0.4242 -0.3003
    1W        W44038  12.849   6.936   8.442 -0.1134 -0.1528 -0.0902
    1W        W44039   7.100   8.165   8.586  0.2014 -0.0029  0.0421
    1W        W44040   9.003  19.007   8.143  0.0556 -0.0428 -0.1506
    1W        W44041   7.144  26.187   2.614  0.0363  0.2289  0.0332
    1W        W44042  29.625  17.013   1.098 -0.2459  0.1448 -0.1719
    1W        W44043  26.626  20.268   7.406 -0.2775  0.0043 -0.1555
    1W        W44044  25.309  10.811   7.261  0.0630  0.1437  0.0135
    1W        W44045   0.674  10.136   0.251 -0.0795 -0.1676  0.1503
    1W        W44046   8.428  28.382   1.626 -0.0185 -0.1015  0.3490
    1W        W44047  16.556  15.698   7.429  0.1281  0.0059 -0.1613
    1W        W44048   5.529  19.509   8.985  0.1747  0.1515 -0.2369
    1W        W44049  21.847  23.978   0.779  0.3612 -0.2585 -0.0839
    1W        W44050   6.643  11.979   1.269  0.0956 -0.1162 -0.0061
    1W        W44051  24.399   8.231   7.448  0.0219 -0.1403  0.0874
    1W        W44052  26.573   5.603   1.084  0.0667 -0.0253 -0.1517
    1W        W44053   0.105  11.415   9.226  0.1066 -0.1901 -0.1805
    1W        W44054  15.045  25.796   1.002  0.0977 -0.3609 -0.3105
    1W        W44055  10.704   7.964   1.208  0.0569  0.0089  0.1092
    1W        W44056   5.553   4.844   1.857  0.3027  0.1296 -0.0937
    1W        W44057  24.243  18.395   8.098  0.0908  0.0558 -0.1509
    1W        W44058  11.635  17.325   0.197 -0.2317 -0.2207 -0.2901
    1W        W44059  11.059  27.812   9.352 -0.1389 -0.0755  0.0641
    1W        W44060   9.941  13.097   2.870 -0.2563  0.1666 -0.3223
    1W        W44061  24.983  18.483   6.920  0.1127  0.1631  0.3553
    1W        W44062  23.432  18.347   1.348 -0.1033  0.1832  0.0132
    1W        W44063  22.439  11.819   8.738 -0.1508 -0.1216 -0.0352
    1W        W44064  24.594  28.561   8.021 -0.0342 -0.0330  0.1066
    1W        W44065   0.690  25.276   0.679  0.1081 -0.3309 -0.0871
    1W        W44066  23.052  15.868   7.833 -0.1216 -0.1926  0.4125
    1W        W44067  23.523  22.148   6.251 -0.1524 -0.0854 -0.0877
    1W        W44068   3.157  15.532   1.237 -0.0148  0.0816 -0.1061
    1W        W44069   1.940  15.766   7.914 -0.0326  0.1220  0.1698
    1W        W44070  26.931  16.106   1.084 -0.0264 -0.3943 -0.3136
    1W        W44071   0.787  28.525   0.863 -0.0174  0.3048 -0.1448
    1W        W44072  12.809   1.642   0.971  0.0778  0.1549 -0.0442
    1W        W44073   8.799  12.672   2.390 -0.0954 -0.0354 -0.0902
    1W        W44074  20.560  21.859   8.404 -0.1704 -0.0543  0.0365
    1W        W44075  11.773  13.526   0.861 -0.0848 -0.0727  0.0268
    1W        W44076  11.212   3.092   2.758 -0.2505  0.0745  0.0935
    1W        W44077   1.362   6.161   1.754 -0.1448  0.2392 -0.0848
    1W        W44078   8.811  13.835   7.468  0.2146  0.0068  0.0279
    1W        W44079  22.016   1.765   6.731 -0.4588 -0.2277 -0.0459
    1W        W44080  23.186   0.268   8.649  0.0336  0.1891  0.1545
    1W        W44081  17.073  15.536   7.960  0.2302  0.0709 -0.0477
    1W        W44082  13.900   9.291   1.967 -0.0396  0.3277 -0.0845
    1W        W44083  11.667  12.076   2.199  0.1030  0.1356 -0.3293
    1W        W44084  16.809   7.100   8.397  0.2847  0.0140 -0.0918
    1W        W44085  25.163  13.349   1.721  0.1231 -0.2135 -0.1149
    1W        W44086   8.773   2.703   1.833 -0.1861  0.0760 -0.0220
    1W        W44087   3.953   4.094   8.269 -0.2840 -0.1665 -0.1428
    1W        W44088  22.115   6.282   1.930 -0.0173  0.1202 -0.1757
    1W        W44089  10.162   6.721   2.436 -0.1118  0.1135  0.0224
    1W        W44090  11.866  17.866   7.547 -0.0890  0.0228  0.1517
    1W        W44091   6.553   3.411   2.435 -0.2141 -0.2958  0.1501
    1W        W44092   9.665   0.693   3.151  0.2507  0.3151  0.0457
    1W        W44093   8.530  28.312   8.137 -0.2160 -0.1989 -0.3922
    1W        W44094  18.717   8.746   7.665 -0.1477  0.1543  0.0115
    1W        W44095  12.658   0.360   3.012  0.2359 -0.1401  0.0302
    1W        W44096  22.574  27.298   8.161  0.2237 -0.1423  0.0899
    1W        W44097  27.270  26.385   1.793 -0.1728  0.2627 -0.2869
    1W        W44098   3.649  17.820   6.508 -0.0860 -0.0713 -0.3889
    1W        W44099  10.169  27.884   8.798  0.1029 -0.1725 -0.1640
    1W        W44100   5.565   3.911   1.508 -0.1942 -0.1343 -0.0376
    1W        W44101  14.972  16.995   0.341  0.0121  0.0941  0.0194
    1W        W44102  17.932  18.306   0.462  0.2560  0.0756  0.1268
    1W        W44103  14.101   2.121   9.064  0.0768  0.1185  0.0936
    1W        W44104  24.012  27.617   0.815  0.0972 -0.2471  0.0649
    1W        W44105  17.364  29.085   6.802 -0.0826 -0.0005 -0.1939
    1W        W44106  10.515   4.000   3.744 -0.0252  0.2831  0.1113
    1W        W44107   0.538  16.534   6.149  0.2128  0.0192 -0.0754
    1W        W44108   0.307  10.655   8.834  0.1955 -0.0569 -0.1120
    1W        W44109   0.596  11.362   1.196  0.0020 -0.1288 -0.2521
    1W        W44110   2.270   8.072   8.244 -0.0068 -0.1165  0.2380
    1W        W44111  16.059  25.633   7.406 -0.0475  0.0952  0.1508
    1W        W44112  24.181   8.755   0.384  0.1284  0.2249 -0.0021
    1W        W44113  22.944   8.907   1.442 -0.3963 -0.0678  0.2663
    1W        W44114  22.594  22.263   0.886  0.1538  0.0513  0.1005
    1W        W44115  25.629  23.057   8.121  0.1182 -0.0513  0.0990
    1W        W44116  10.201   9.402   1.935  0.1993 -0.3657  0.1318
    1W        W44117   7.031  11.646   2.252  0.2691 -0.0124  0.1115
    1W        W44118  15.068   4.569   8.529  0.0992 -0.3795  0.0088
    1W        W44119  11.670   0.342   3.154 -0.1842  0.0290  0.4777
    1W        W44120   6.811  20.471   0.296  0.3013  0.0123  0.1758
    1W        W44121  22.747  15.175   6.036  0.2182  0.2146  0.4055
    1W        W44122  12.140   9.514   2.640  0.1220 -0.2021 -0.0683
    1W        W44123  12.617  22.251   7.625 -0.1863 -0.1731 -0.2480
    1W        W44124  23.603   5.928   7.215  0.1096  0.2620  0.0676
    1W        W44125  16.834   4.498   6.731  0.0383 -0.3202 -0.0062
    1W        W44126  16.806  29.487   3.015 -0.2355  0.2605 -0.0774
    1W        W44127   6.440  19.762   8.827  0.0002  0.3022  0.5122
    1W        W44128  25.916   9.776   7.232  0.2139  0.0015  0.0366
    1W        W44129  15.062  20.607   7.939 -0.0349  0.1874  0.0501
    1W        W44130   5.339  23.414   0.658  0.4130 -0.0082 -0.0475
    1W        W44131   4.138  19.644   7.335  0.0951 -0.1608  0.0163
    1W        W44132   2.759  24.792   8.954 -0.2567  0.3497 -0.2051
    1W        W44133  24.709   2.837   6.682 -0.2701 -0.3726 -0.0784
    1W        W44134  10.263   3.705   3.187 -0.1305  0.0045  0.0140
    1W        W44135  11.754   4.046   7.537 -0.1423  0.1894 -0.1066
    1W        W44136  26.590  22.548   7.586  0.3717 -0.3090  0.2091
    1W        W44137  15.788   3.422   9.321 -0.0662  0.0067  0.0401
    1W        W44138  24.254   9.269   6.583 -0.3846 -0.0611 -0.0917
    1W        W44139   4.007  15.526   8.125  0.0591  0.4081 -0.1520
    1W        W44140   9.152  26.115   7.211 -0.1151 -0.0049  0.2440
    1W        W44141  14.364   5.003   3.172  0.1572 -0.3748 -0.2373
    1W        W44142   7.316  27.087   0.800  0.1182  0.0933  0.2314
    1W        W44143   4.930   6.373   2.530  0.0677  0.1309  0.2391
    1W        W44144   7.507  12.326   3.449  0.1688  0.0335 -0.1859
    1W        W44145   8.343  15.206   7.621  0.4150 -0.1047 -0.1197
    1W        W44146   4.528  21.759   5.376 -0.2371  0.0028 -0.0777
    1W        W44147  25.114  19.004   9.034 -0.0790  0.1451 -0.0428
    1W        W44148   6.481   4.471   7.389 -0.1279  0.0039 -0.3955
    1W        W44149  25.815  13.299   7.273  0.1138  0.2286  0.1598
    1W        W44150  20.313  11.009   6.833 -0.0020 -0.0026 -0.0903
    1W        W44151  23.484   5.333   0.884  0.1224 -0.0155  0.1227
    1W        W44152   0.592  12.659   6.572 -0.2681 -0.0758 -0.0562
    1W        W44153  13.628  14.753   7.262  0.0542 -0.2426  0.2559
    1W        W44154  10.028  24.037   8.726  0.0245 -0.1661  0.3312
    1W        W44155  16.213  18.035   6.690 -0.1542 -0.1517 -0.0383
    1W        W44156  14.194  29.236   2.565  0.1129 -0.2196 -0.0942
    1W        W44157  26.309  16.221   1.120  0.1305  0.3875 -0.2257
    1W        W44158  28.771  23.567   1.312  0.1270  0.5503 -0.4538
    1W        W44159   4.965  30.045   2.761 -0.1539 -0.1045  0.0816
    1W        W44160  26.489   3.257   7.716 -0.1480  0.2676 -0.1735
    1W        W44161  26.074  19.908   6.686 -0.0170  0.1787  0.1612
    1W        W44162   3.727  12.316   1.625  0.0475  0.0174  0.0888
    1W        W44163  15.498  23.433   7.645  0.1588  0.2117 -0.0723
    1W        W44164  28.090  13.199   7.436 -0.2470 -0.0314 -0.2159
    1W        W44165   4.878  17.073   8.093 -0.2436  0.1424  0.2143
    1W        W44166  21.409  23.336   8.544 -0.1734  0.0094 -0.1422
    1W        W44167  15.368  30.048   1.568  0.2344 -0.0647  0.0155
    1W        W44168   8.532  21.686   7.824 -0.0432  0.0350  0.0325
    1W        W44169  19.966  12.159   9.134 -0.3377  0.0276  0.1556
    1W        W44170  12.146  12.031   2.880  0.2778  0.1848  0.2844
    1W        W44171  13.672  11.092   2.751  0.2752 -0.1861  0.1522
    1W        W44172   3.220   7.280   6.774 -0.1011 -0.1662 -0.0817
    1W        W44173   7.729  12.198   9.169  0.0234  0.0577 -0.1014
    1W        W44174  17.119  22.170   8.787  0.2204 -0.0245 -0.1175
    1W        W44175  10.063  20.012   7.803 -0.0856 -0.1962  0.0481
    1W        W44176   0.954   7.974   7.733 -0.2939  0.0709 -0.0333
    1W        W44177   6.537   1.054   1.385 -0.1216 -0.0958 -0.0656
    1W        W44178   4.572  10.097   0.759 -0.0410 -0.0744 -0.1344
    1W        W44179  20.021  16.795   0.339  0.0289 -0.0140  0.3180
    1W        W44180   8.614  29.162   1.203  0.1195  0.0521  0.1331
    1W        W44181  18.149  26.278   2.437  0.1362  0.3282 -0.0044
    1W        W44182  14.886   2.410   9.084  0.1837 -0.3489  0.4049
    1W        W44183  23.464  17.305   0.975  0.0612 -0.0220  0.1526
    1W        W44184  17.711  28.321   9.388  0.4071 -0.4790 -0.0775
    1W        W44185  20.530   4.104   0.213 -0.4719  0.0046  0.0335
    1W        W44186   9.235  19.704   7.430  0.3169  0.3287  0.1907
    1W        W44187   1.658  23.949   7.700  0.0543 -0.1206 -0.2663
    1W        W44188  24.587  12.738   6.277 -0.0480  0.0428  0.1951
    1W        W44189  23.555  10.579   1.923  0.1614  0.0221  0.0800
    1W        W44190   7.364  11.657   9.317  0.3217  0.2138 -0.0948
    1W        W44191   1.282   2.043   2.935  0.1585  0.1952  0.4189
    1W        W44192  21.261  26.788   0.115 -0.3524  0.0266 -0.0724
    1W        W44193  17.698   7.921   7.136  0.1071  0.0041 -0.0319
    1W        W44194  29.121   7.947   2.034 -0.1085  0.4963  0.1412
    1W        W44195  29.596   8.818   8.582  0.1282 -0.1844 -0.2133
    1W        W44196   1.653  24.627   6.689 -0.0724  0.0174  0.0602
    1W        W44197  24.964   6.286   8.232 -0.4167  0.1766  0.2630
    1W        W44198  23.722  25.032   2.705 -0.2695 -0.0651  0.0161
    1W        W44199   6.767  18.904   5.819 -0.0991  0.0879  0.1977
    1W        W44200   5.239  13.021   8.116  0.2535 -0.0214  0.0081
    1W        W44201  16.403   3.502   8.348  0.0307  0.0522 -0.4016
    1W        W44202  27.255   0.168   7.734  0.0069  0.0106 -0.3164
    1W        W44203  22.886  25.656   8.780  0.2763 -0.1778 -0.1762
    1W        W44204  14.619  28.662   8.683  0.1234  0.0279  0.2514
    1W        W44205  24.986  26.622   0.849 -0.2133 -0.2361  0.1604
    1W        W44206   1.789  29.392   2.427 -0.4223  0.1771 -0.3936
    1W        W44207  25.959  25.511   8.688  0.0314  0.0828 -0.0678
    1W        W44208  10.230  27.688   8.336  0.2306  0.0365 -0.1005
    1W        W44209  27.438  22.243   2.265  0.0568 -0.1462 -0.0174
    1W        W44210   4.956  11.733   3.128 -0.0490  0.3229 -0.1016
    1W        W44211  20.951  23.800   0.872  0.1085 -0.0932 -0.2289
    1W        W44212   6.451  20.571   2.096 -0.0415  0.3197 -0.1271
    1W        W44213  14.216  20.340   7.516  0.1693 -0.1288  0.0776
    1W        W44214  15.870  24.419   7.517 -0.1929 -0.3024 -0.0137
    1W        W44215  29.801   7.700   1.441 -0.1914  0.1031 -0.0529
    1W        W44216   2.598  28.577   7.082 -0.2172 -0.0187 -0.2454
    1W        W44217  27.519   0.182   8.304 -0.1985 -0.0271 -0.2154
    1W        W44218  12.554   4.679   1.797  0.0451  0.2735  0.1356
    1W        W44219   6.770  16.644   7.716 -0.2550  0.1482 -0.1029
    1W        W44220  12.334  29.797   7.033 -0.0519 -0.1501  0.3129
    1W        W44221  16.117   8.214   0.494 -0.0284 -0.2725 -0.1774
    1W        W44222  11.320  12.871   2.058  0.1179  0.0556 -0.3930
    1W        W44223  28.660  30.030   0.621 -0.0912 -0.0550  0.1277
    1W        W44224  19.106   8.738   7.986  0.1030  0.2810  0.0566
    1W        W44225   9.065  16.800   7.070  0.0149 -0.1725 -0.1078
    1W        W44226  19.039  15.135   8.164 -0.0010  0.2871 -0.1329
    1W        W44227  12.283  29.117   7.543 -0.2427  0.1465 -0.0390
    1W        W44228  20.193  22.765   0.580 -0.1415  0.0322 -0.0100
    1W        W44229  28.438  22.991   8.720  0.2590  0.2677  0.1522
    1W        W44230   2.055  28.445   2.951  0.1417  0.0501  0.1457
    1W        W44231   2.149   6.816   1.012  0.4348 -0.1399 -0.0693
    1W        W44232   3.002  14.305   5.885  0.1069  0.0097  0.0297
    1W        W44233   4.399   5.199   1.141 -0.0472 -0.0618  0.0045
    1W        W44234   4.236  26.998   7.407 -0.0876  0.1261 -0.1270
    1W        W44235  27.696  11.563   6.175  0.1146 -0.0535 -0.2359
    1W        W44236   9.547   8.073   8.527 -0.0972  0.0164 -0.1511
    1W        W44237   9.751  29.012   3.768  0.0569  0.3806 -0.0544
    1W        W44238  14.328  13.513   7.496 -0.2842  0.2133  0.1727
    1W        W44239  22.058   1.471   0.234 -0.1704  0.0790 -0.1845
    1W        W44240  11.821  15.691   7.975  0.2380  0.2332 -0.2720
    1W        W44241   8.051  23.002   8.564 -0.2933  0.3069  0.0345
    1W        W44242  26.262  25.875   0.635  0.0603 -0.1274  0.1020
    1W        W44243  16.541  13.409   0.988  0.0687  0.0912  0.0589
    1W        W44244  21.000   7.636   7.336 -0.0363  0.0924  0.1489
    1W        W44245  29.127  11.568   0.317  0.2374 -0.0040 -0.4058
    1W        W44246   8.257   2.395   7.049 -0.1538  0.0424 -0.0169
    1W        W44247  13.307  16.817   7.770  0.0237 -0.1723  0.0010
    1W        W44248  18.460  14.794   1.609  0.0342 -0.2067 -0.0156
    1W        W44249  18.856  21.396   8.097 -0.0730 -0.0085 -0.2622
    1W        W44250  18.640  24.814   8.479 -0.0275 -0.2060  0.3399
    1W        W44251   6.201  29.882   1.677 -0.2480 -0.1284 -0.2014
    1W        W44252  23.604  26.871   6.903 -0.0381 -0.4395  0.1828
    1W        W44253   1.801  19.126   1.311 -0.3540 -0.2376  0.0088
    1W        W44254   0.278   6.804   0.207 -0.4093  0.1680 -0.1692
    1W        W44255  23.873  28.042   1.711 -0.0501 -0.1007  0.0468
    1W        W44256  20.014  15.917   6.265  0.1466  0.0800  0.2493
    1W        W44257  27.259   4.959   0.529 -0.0560  0.3619  0.0749
    1W        W44258  22.511  21.764   8.180  0.1569 -0.1024  0.1420
    1W        W44259  11.926   3.389   2.179 -0.6230 -0.1269 -0.1362
    1W        W44260  28.764  25.370   7.703  0.0186  0.0562  0.0624
    1W        W44261  29.786  10.686   1.196  0.3175 -0.0477 -0.0866
    1W        W44262  18.021  14.135   0.185 -0.2448 -0.0649  0.0000
    1W        W44263  13.701   7.025   9.330 -0.1218  0.0987  0.4098
    1W        W44264   8.258  23.318   6.639  0.0030 -0.1672 -0.0707
    1W        W44265   1.511   3.194   2.226 -0.7048  0.0561 -0.2694
    1W        W44266  10.336   5.032   7.229 -0.2059 -0.1605 -0.0440
    1W        W44267  20.783   3.808   1.884  0.0117 -0.0573  0.2212
    1W        W44268   9.529  27.657   7.328 -0.1236 -0.1218  0.2312
    1W        W44269  29.466   6.505   1.123  0.5905 -0.0307  0.0761
    1W        W44270  24.630   5.390   7.192 -0.2231 -0.1154  0.0736
    1W        W44271  21.939  27.224   1.066  0.0135 -0.0292 -0.0373
    1W        W44272  14.556  14.414   9.029  0.0542  0.0776 -0.1128
    1W        W44273   8.208  28.539   2.380  0.0934  0.1844  0.0850
    1W        W44274   6.465  17.567   9.018  0.1485 -0.1832 -0.0804
    1W        W44275  14.732  11.750   0.819 -0.2774 -0.1243 -0.1289
    1W        W44276   8.221  25.163   9.045  0.2519  0.0513  0.0696
    1W        W44277  23.824  17.004   0.157  0.4206 -0.1730  0.0165
    1W        W44278   0.981  15.935   6.926  0.0268 -0.0050  0.3154
    1W        W44279   3.746  21.499   0.610 -0.1952 -0.0461 -0.1392
    1W        W44280  20.217  27.712   1.826  0.1385  0.0368  0.5759
    1W        W44281   0.066  26.906   0.909  0.2659 -0.0573 -0.3984
    1W        W44282  21.648   4.526   1.656 -0.0351  0.4725  0.0619
    1W        W44283   9.774  19.956   7.427  0.1087 -0.3460 -0.1459
    1W        W44284  26.608  15.150   8.283 -0.0650  0.3710 -0.1081
    1W        W44285  13.023  18.550   7.394 -0.4710 -0.0049 -0.1179
    1W        W44286   6.029  22.851   0.261  0.1073  0.0861 -0.1514
    1W        W44287   3.694  19.069   5.675  0.2259 -0.0442  0.0420
    1W        W44288  27.298   3.121   8.058 -0.0907  0.1440 -0.1532
    1W        W44289  25.769  22.743   8.927  0.1614 -0.0578  0.1269
    1W        W44290  22.796   6.535   0.281 -0.2314 -0.0378 -0.1792
    1W        W44291  26.514  16.443   5.389 -0.0031  0.3147 -0.2093
    1W        W44292   1.883  11.151   8.198  0.0430  0.5773 -0.0608
    1W        W44293   6.616  27.776   6.739 -0.0803  0.2409  0.0204
    1W        W44294  20.946  28.009   3.194 -0.2072  0.0079  0.0672
    1W        W44295  28.386   8.582   6.269  0.1818  0.1480 -0.3335
    1W        W44296  21.361  21.323   7.546 -0.0333 -0.1767  0.0087
    1W        W44297  11.668  17.420   7.419  0.0673 -0.3156  0.1155
    1W        W44298  24.658   4.355   8.501  0.0613  0.3413  0.2448
    1W        W44299   9.237  11.434   8.634  0.1848 -0.0058 -0.0679
    1W        W44300   0.536  12.234   7.512 -0.1129 -0.0937  0.0807
    1W        W44301   9.836  19.325   0.366  0.0033 -0.0273  0.1749
    1W        W44302  28.414  16.113   0.331  0.0775 -0.0537 -0.1340
    1W        W44303  25.155  16.519   1.997  0.4255 -0.2992 -0.1491
    1W        W44304  22.005  26.181   7.649 -0.0824 -0.0645 -0.1423
    1W        W44305   7.031   6.191   7.326  0.1458 -0.1200  0.1528
    1W        W44306   1.940  27.545   2.005 -0.1454 -0.4380 -0.2512
    1W        W44307  22.943  28.227   8.905 -0.0632  0.0706  0.1465
    1W        W44308  26.870  26.951   7.892  0.0715  0.0607  0.0968
    1W        W44309  26.130  15.792   7.780  0.0767  0.0147  0.1835
    1W        W44310   3.254   4.584   6.918 -0.3030 -0.1579 -0.0429
    1W        W44311  11.182  19.636   1.029  0.1709 -0.1492  0.1559
    1W        W44312   5.857  20.852   9.262  0.1864  0.0318  0.4652
    1W        W44313   6.690  29.463   2.295 -0.0090 -0.1202 -0.0270
    1W        W44314  11.048   6.383   0.063 -0.1801  0.2541 -0.2923
    1W        W44315  25.451  23.591   7.152  0.0546 -0.3041  0.3588
    1W        W44316  18.147  28.559   9.197 -0.0773  0.1064  0.0342
    1W        W44317  10.771  19.936   0.826  0.1413  0.3973  0.1373
    1W        W44318  27.864  11.121   1.699  0.2106  0.1082  0.0292
    1W        W44319   5.465   0.581   2.202  0.1256 -0.1505  0.3748
    1W        W44320  17.406  11.072   7.895 -0.2733  0.0356 -0.1440
    1W        W44321  24.839  23.974   8.483  0.2957  0.2280  0.0469
    1W        W44322   1.811   4.712   2.130 -0.1343 -0.1622  0.1631
    1W        W44323  14.359   2.526   3.636 -0.2669 -0.1686 -0.1089
    1W        W44324  29.406   9.523   6.546 -0.1849 -0.1589  0.1622
    1W        W44325   7.286  26.915   1.759  0.1159 -0.1822  0.4356
    1W        W44326   0.021  12.519   7.958 -0.0585 -0.1197  0.2409
    1W        W44327  12.076  14.735   9.288  0.1096 -0.1878  0.2573
    1W        W44328  29.651  25.296   1.064  0.0606 -0.0983 -0.3312
    1W        W44329  16.587  17.509   0.120 -0.3770 -0.0407 -0.3676
    1W        W44330  17.355   1.811   3.179 -0.1234 -0.3889  0.2640
    1W        W44331   4.267   2.290   7.501  0.1561 -0.0465  0.0844
    1W        W44332   0.735  17.077   9.104  0.1002 -0.2276 -0.1141
    1W        W44333   1.788  16.730   6.223 -0.4733 -0.0490  0.0924
    1W        W44334   5.865  28.440   0.144  0.3797  0.1203 -0.0592
    1W        W44335  27.271  23.425   1.839  0.0609 -0.0309  0.0835
    1W        W44336  26.055  19.871   0.565 -0.1124 -0.3135  0.1050
    1W        W44337  19.387  21.990   1.822 -0.1176  0.1055 -0.0843
    1W        W44338  21.627  28.819   8.438 -0.1335 -0.0538 -0.3695
    1W        W44339   7.092   0.794   7.948  0.1461 -0.1922  0.0218
    1W        W44340   1.178   9.785   8.289  0.0970 -0.0416 -0.4529
    1W        W44341   1.138  11.942   2.553  0.3875  0.1012 -0.1521
    1W        W44342   5.183  16.433   8.792  0.1675 -0.0878  0.0747
    1W        W44343  28.863  12.525   0.330 -0.0851 -0.0381 -0.0012
    1W        W44344   2.647  24.354   6.128  0.0848 -0.3402  0.1816
    1W        W44345  20.582  13.184   8.601  0.1122 -0.1137  0.4578
    1W        W44346   2.434  21.964   5.800 -0.0285 -0.0424 -0.0901
    1W        W44347  11.783  29.209   7.621  0.1491  0.0299  0.3236
    1W        W44348   4.437  22.536   6.054  0.1458 -0.0946 -0.0455
    1W        W44349   7.824  28.544   0.398  0.0584 -0.0617  0.3019
    1W        W44350  11.766   0.571   0.604  0.0109 -0.5648  0.1238
    1W        W44351  10.198  14.867   8.555  0.0174 -0.0867 -0.4333
    1W        W44352  28.218  11.858   0.704 -0.3804 -0.0523 -0.1108
    1W        W44353  16.691  25.081   8.896  0.0014 -0.0901 -0.2528
    1W        W44354  16.570  15.419   1.293  0.0503  0.0867  0.0587
    1W        W44355   0.305   5.780   3.268  0.1516  0.0780  0.0413
    1W        W44356  27.049  13.150   6.677 -0.2200 -0.0700  0.1873
    1W        W44357  27.996   2.863   0.669 -0.0160  0.0137 -0.1569
    1W        W44358  27.003  27.233   6.905 -0.0564  0.1476 -0.1039
    1W        W44359   8.566   9.625   2.963  0.2787  0.1407  0.2364
    1W        W44360  13.581  17.708   7.724 -0.0957 -0.0702  0.2243
    1W        W44361   4.584  11.974   0.433  0.2026  0.2671  0.0872
    1W        W44362   0.479   3.706   9.357 -0.1520  0.0645 -0.0118
    1W        W44363   3.536  11.142   7.953 -0.3036 -0.1275 -0.1740
    1W        W44364  28.507  11.490   8.826  0.0831 -0.2339 -0.0195
    1W        W44365  12.502   3.173   1.020 -0.0202  0.3124  0.1103
    1W        W44366  28.804   1.755   8.615  0.2771  0.1372 -0.0701
    1W        W44367  22.624   3.730   0.175 -0.1174  0.1479  0.4345
    1W        W44368  10.898  27.795   0.869 -0.2103 -0.0071 -0.2160
    1W        W44369  16.289   6.507   9.039 -0.0682  0.2261  0.3543
    1W        W44370  22.204  20.767   8.419  0.0813 -0.3484  0.2869
    1W        W44371  18.078   1.673   1.944 -0.2707  0.0272  0.0421
    1W        W44372   0.199  29.501   9.166  0.0208  0.0290 -0.0728
    1W        W44373   6.465  22.845   0.534 -0.0931  0.0566  0.1209
    1W        W44374   4.896  10.571   2.856 -0.0393  0.2411  0.0094
    1W        W44375  16.956  12.222   7.761 -0.0941 -0.2254  0.0958
    1W        W44376   9.892  10.019   0.263 -0.1067  0.0597 -0.2665
    1W        W44377  17.861  15.763   0.903  0.1246  0.0095  0.0487
    1W        W44378   9.959   0.172   7.700 -0.1941 -0.2117 -0.0963
    1W        W44379  17.129   5.330   7.614  0.2763 -0.0434 -0.1942
    1W        W44380  15.819   4.423   1.029  0.3308 -0.0809 -0.1523
    1W        W44381  20.598   3.747   7.761  0.1144  0.1102  0.1304
    1W        W44382   9.917   8.441   9.084  0.1633  0.0942 -0.2217
    1W        W44383  29.116   3.398   7.999 -0.2020  0.1420  0.2693
    1W        W44384  29.192  21.899   9.042  0.0548 -0.0921  0.1267
    1W        W44385  28.225   8.014   1.616 -0.4074  0.3143 -0.3212
    1W        W44386  19.741  29.608   8.802 -0.1154 -0.2290  0.0264
    1W        W44387  26.094  23.246   8.140  0.0436  0.1150 -0.1616
    1W        W44388  18.216   3.330   0.219 -0.0308 -0.3139 -0.2090
    1W        W44389  10.057  29.976   1.227 -0.0305 -0.0471  0.0504
    1W        W44390  24.348   6.039   8.808 -0.0514  0.1462  0.2428
    1W        W44391   1.731  17.254   7.559 -0.1285 -0.0051 -0.0401
    1W        W44392  24.113  15.368   7.221 -0.1134 -0.0762 -0.2995
    1W        W44393   6.941   4.384   7.675  0.1226  0.1495 -0.0065
    1W        W44394  18.846  24.829   7.443  0.0131  0.0506 -0.3137
    1W        W44395  14.452   1.804   7.018  0.0160  0.2452 -0.0479
    1W        W44396   4.475  16.415   6.328 -0.1233  0.2274  0.3150
    1W        W44397   5.235  21.444   8.963 -0.0858  0.1693 -0.1904
    1W        W44398  19.238  26.014   1.461 -0.0278 -0.0822 -0.0218
    1W        W44399  21.301  28.787   0.276  0.2413 -0.0456 -0.1217
    1W        W44400   1.491   7.624   6.462 -0.1430  0.0214 -0.3098
    1W        W44401  17.595   4.349   0.571 -0.1544  0.2240  0.0674
    1W        W44402  10.339  18.838   7.075  0.1321  0.1953  0.1082
    1W        W44403   1.017   2.071   7.737 -0.1862 -0.3445  0.2615
    1W        W44404  16.616   9.926   7.595 -0.0135 -0.1518 -0.2803
    1W        W44405   3.627   7.426   7.061 -0.0959  0.3445  0.0637
    1W        W44406  18.036  25.170   0.132 -0.3732  0.1400 -0.0419
    1W        W44407  16.285   3.610   9.250 -0.1024 -0.1470  0.0365
    1W        W44408  29.734  27.067   2.520 -0.1544  0.1776  0.1479
    1W        W44409  27.562   0.672   6.600  0.0378 -0.0024  0.2035
    1W        W44410  12.478  20.325   7.465 -0.0826 -0.3781 -0.0710
    1W        W44411   4.258   2.763   0.596 -0.0562  0.2413  0.0193
    1W        W44412  15.096   1.858   2.200 -0.2515 -0.0394 -0.1841
    1W        W44413   5.874  26.330   0.964 -0.3783  0.2064 -0.4049
    1W        W44414  14.892  19.635   2.586  0.1192  0.1575 -0.3102
    1W        W44415   7.305  29.692   7.863 -0.3003 -0.1503  0.0766
    1W        W44416  14.338  15.761   8.528  0.0976  0.1947 -0.0063
    1W        W44417  24.726  29.536   8.659 -0.2776  0.2851  0.1632
    1W        W44418   2.079   1.951   8.918  0.3127  0.0401  0.0390
    1W        W44419   7.719   4.048   3.241 -0.0667  0.2731  0.2831
    1W        W44420  26.750   3.187   1.461 -0.2982  0.0988  0.0265
    1W        W44421  18.178  28.933   7.185  0.2649  0.5077 -0.1607
    1W        W44422  20.313  29.470   8.869  0.2663 -0.0555  0.1135
    1W        W44423   5.396  14.921   0.486 -0.1873  0.0529 -0.0236
    1W        W44424  15.113  26.140   7.533 -0.1373  0.1480 -0.1175
    1W        W44425   0.085  24.940   0.848 -0.1662 -0.2179 -0.4745
    1W        W44426  22.819   1.084   6.996 -0.2441  0.2971  0.0308
    1W        W44427  27.389   8.258   7.495  0.2700 -0.0746 -0.0425
    1W        W44428  18.621  19.633   0.067  0.0705  0.0051 -0.1266
    1W        W44429  23.518   3.337   0.149 -0.3092 -0.0266  0.0108
    1W        W44430  12.058  15.202   0.356  0.3212  0.1399  0.1840
    1W        W44431   5.713   8.030   8.806 -0.0921 -0.1368  0.0501
    1W        W44432  22.841   8.426   8.428 -0.0065 -0.1538  0.1448
    1W        W44433  18.610   8.534   2.027 -0.0710 -0.2145 -0.0446
    1W        W44434   7.057  28.188   3.779  0.0958  0.0047  0.2576
    1W        W44435   9.640  26.000   8.277 -0.2448  0.1601  0.0946
    1W        W44436  10.593  19.952   8.045  0.0943  0.0320  0.0604
    1W        W44437   5.972  21.677   8.892  0.2363  0.0491 -0.0229
    1W        W44438  10.762   9.073   2.122  0.0250 -0.1038  0.1902
    1W        W44439  18.619  21.589   8.546  0.3250 -0.2067  0.0115
    1W        W44440  20.100  23.249   8.711 -0.1172 -0.1149 -0.1464
    1W        W44441  21.161  11.430   8.058  0.0032  0.4253  0.0995
    1W        W44442  11.520   5.669   2.981  0.2374  0.0342 -0.1650
    1W        W44443   7.005  18.153   0.836 -0.0102 -0.0004  0.0930
    1W        W44444  13.599  30.067   7.725 -0.1292  0.2897  0.0787
    1W        W44445  15.217   3.881   0.821 -0.0267 -0.3894  0.2493
    1W        W44446  10.027  12.149   9.072  0.1456  0.0526  0.0497
    1W        W44447  21.677   4.025   1.423  0.1907 -0.0038 -0.1746
    1W        W44448  29.860  28.002   7.451 -0.4168 -0.0975 -0.2919
    1W        W44449  19.711   7.420   1.670 -0.0389  0.1134 -0.0112
    1W        W44450  27.464  21.107   9.193  0.2693 -0.0064  0.0093
    1W        W44451  28.801  12.092   8.455 -0.2492  0.0728 -0.0166
    1W        W44452   5.410  14.293   2.223 -0.0917  0.1420 -0.2220
    1W        W44453   3.933  26.099   9.022 -0.1666  0.1151 -0.0914
    1W        W44454  24.458   5.896   2.811 -0.2355  0.0909  0.0025
    1W        W44455  26.998  12.065   0.021 -0.1585 -0.2327  0.0546
    1W        W44456  21.416  27.969   7.157 -0.0564 -0.1624 -0.0780
    1W        W44457  26.717  17.191   8.193 -0.3575 -0.0269  0.2091
    1W        W44458  15.676   9.485   7.449  0.0379  0.0599  0.0087
    1W        W44459  22.130  24.917   0.692 -0.2180  0.1169 -0.2213
    1W        W44460  28.075  16.941   6.765 -0.1637 -0.0470 -0.4444
    1W        W44461   2.497  26.386   1.466  0.1057 -0.0214  0.1668
    1W        W44462   4.058  20.904   7.533  0.0585 -0.0712  0.0961
    1W        W44463   8.270  15.615   7.276  0.3225  0.1645  0.1507
    1W        W44464  28.857  29.624   3.413 -0.2916 -0.0049  0.0262
    1W        W44465   0.053  12.285   7.458 -0.1166  0.4940  0.1230
    1W        W44466   8.502  17.923   8.851 -0.0099  0.0812  0.0038
    1W        W44467   4.651  23.033   8.926  0.0060 -0.2349  0.0995
    1W        W44468  23.740   9.969   0.406  0.3004  0.0716  0.0376
    1W        W44469   0.496   4.236   1.679 -0.0089 -0.1240 -0.0692
    1W        W44470   5.409   6.247   7.563  0.3649  0.1563  0.0003
    1W        W44471  14.999   3.272   1.367 -0.1267 -0.0943  0.0734
    1W        W44472  12.196  12.137   9.105  0.3703  0.3571  0.1647
    1W        W44473  28.094  22.558   8.086 -0.3366  0.0091  0.1177
    1W        W44474  11.215  18.142   2.098 -0.0006  0.0447  0.0852
    1W        W44475   0.462  15.978   6.406  0.1590  0.1198  0.2609
    1W        W44476  23.655   9.287   8.967 -0.1746  0.3659 -0.3591
    1W        W44477  29.993  29.661   0.215  0.0318 -0.0273  0.2581
    1W        W44478  24.495  19.155   7.002  0.1164 -0.0993  0.0946
    1W        W44479   1.080   8.003   1.828 -0.1746 -0.0718  0.0670
    1W        W44480   2.742  22.819   1.898  0.1654  0.4830 -0.0182
    1W        W44481  26.669   7.173   7.672 -0.1570 -0.2540  0.0580
    1W        W44482   3.555   9.775   7.426 -0.2065  0.0102  0.4341
    1W        W44483   9.311   0.853   0.050 -0.2840  0.4646  0.3662
    1W        W44484  12.751  11.608   7.630  0.0188 -0.2029 -0.2106
    1W        W44485  18.109  22.791   7.475  0.2112 -0.2484 -0.0158
    1W        W44486   1.688  12.243   1.465 -0.0939 -0.4103  0.0711
    1W        W44487  27.785   2.028   8.565  0.3470 -0.0451 -0.3218
    1W        W44488   5.719  28.894   0.295  0.1570 -0.2893  0.0263
    1W        W44489   0.207  23.596   7.982 -0.0539  0.0363  0.1533
    1W        W44490   9.469  17.870   1.886 -0.0737  0.1145 -0.1551
    1W        W44491  29.598   0.898   7.303  0.0584 -0.0642  0.0127
    1W        W44492   8.663  11.717   1.450  0.2666 -0.1462  0.0535
    1W        W44493   7.789  28.291   0.866  0.2040 -0.2413 -0.1035
    1W        W44494   4.349  16.782   1.822  0.0968 -0.0082 -0.0184
    1W        W44495  27.960  20.811   2.047  0.2027  0.0102  0.2429
    1W        W44496  23.827  22.089   9.100  0.0761  0.0735 -0.1630
    1W        W44497   8.097   6.109   3.037 -0.2688  0.0645 -0.0729
    1W        W44498  13.494   6.482   3.519  0.0294 -0.3065 -0.4861
    1W        W44499  27.955  18.846   5.602 -0.0493  0.0547 -0.0413
    1W        W44500  17.562  21.623   8.063 -0.1861 -0.1050 -0.1056
    1W        W44501  23.146   3.794   0.365 -0.0461  0.3573  0.1395
    1W        W44502  15.603   2.400   7.794 -0.0154 -0.0453 -0.2725
    1W        W44503   1.032  21.601   7.765  0.3160 -0.0246  0.3100
    1W        W44504  23.957  10.703   8.750 -0.1087 -0.0003  0.2195
    1W        W44505  19.821   1.190   7.068 -0.1842  0.1530 -0.0822
    1W        W44506  22.704  21.088   1.075  0.1860  0.3483 -0.0413
    1W        W44507  15.951   8.634   7.878 -0.0987  0.3833 -0.0891
    1W        W44508  23.686  23.442   0.191 -0.2473  0.1877  0.0676
    1W        W44509   7.286   8.404   8.208  0.0031 -0.2842  0.2384
    1W        W44510  13.656  27.198   9.305 -0.1775 -0.0877 -0.0567
    1W        W44511   7.883  19.210   7.431 -0.4363 -0.2415 -0.1420
    1W        W44512  13.583   2.974   9.237 -0.0951  0.2416  0.1876
    1W        W44513  12.328  25.785   7.215 -0.1405  0.2461  0.1883
    1W        W44514   4.990   5.103   7.732 -0.2316 -0.0297 -0.0767
    1W        W44515  16.546  10.018   9.041 -0.0062 -0.0883  0.1772
    1W        W44516  10.678  10.289   7.846  0.2797 -0.0361 -0.0949
    1W        W44517  25.210  21.666   8.834  0.0749  0.0773 -0.0026
    1W        W44518   2.583   6.960   3.438 -0.0365 -0.1762 -0.2084
    1W        W44519  29.533  24.970   6.624 -0.0394  0.1309 -0.0021
    1W        W44520  27.041   5.838   3.081  0.2529 -0.1319  0.0262
    1W        W44521  18.643  12.542   7.800  0.0279  0.0529 -0.0677
    1W        W44522  26.049  26.619   8.108 -0.0086  0.1100 -0.3338
    1W        W44523  29.142   9.063   6.458 -0.1012  0.1157  0.0229
    1W        W44524  14.590   4.644   7.735  0.1145 -0.0075 -0.0370
    1W        W44525  12.414  14.180   7.746  0.0820  0.0905 -0.0570
    1W        W44526  24.076  25.756   9.300  0.1409 -0.0422 -0.0296
    1W        W44527  14.744  18.805   7.521 -0.3274 -0.0024 -0.1536
    1W        W44528  22.362  28.005   0.023 -0.1337  0.2882 -0.2062
    1W        W44529   5.772  12.705   3.629  0.1271  0.0868  0.0062
    1W        W44530  24.927   8.662   8.133 -0.3819  0.3443 -0.4746
    1W        W44531  28.610   9.944   1.443 -0.1522 -0.1057  0.2164
    1W        W44532   2.285   3.541   2.587  0.0745  0.0548 -0.0607
    1W        W44533  20.662   8.938   1.895 -0.1206 -0.2331 -0.0294
    1W        W44534  15.760   5.485   3.359  0.1380 -0.0093 -0.1428
    1W        W44535   3.235  15.150   6.205 -0.4770  0.0187  0.2126
    1W        W44536  16.391  25.344   7.119 -0.4210 -0.0691 -0.1084
    1W        W44537  18.725   4.079   8.624  0.1016  0.0014 -0.2930
    1W        W44538  17.765  25.729   8.143 -0.3141 -0.0640 -0.1086
    1W        W44539  22.291  30.152   6.939 -0.4736 -0.0629 -0.1270
    1W        W44540  22.116  18.854   1.695 -0.1872  0.0519  0.1881
    1W        W44541  12.548   3.993   3.287  0.2584  0.0076 -0.4568
    1W        W44542  22.963  26.502   2.722 -0.0630 -0.0206 -0.2347
    1W        W44543  25.397  29.378   0.127  0.3240 -0.0962  0.0529
    1W        W44544  17.519   3.266   9.014 -0.0385  0.0472 -0.1340
    1W        W44545  21.749  18.301   7.327  0.0021 -0.2470 -0.2274
    1W        W44546  28.973  19.591   1.010  0.0805 -0.1874  0.0107
    1W        W44547  11.580  12.906   0.491  0.0936 -0.5403 -0.2757
    1W        W44548   8.143  22.447   8.717 -0.1770  0.2031  0.0548
    1W        W44549  28.786   4.097   0.631 -0.0410  0.6180 -0.1470
    1W        W44550   3.117  20.492   1.332 -0.3495 -0.0064  0.1962
    1W        W44551   1.156  17.324   8.853 -0.1211 -0.1675 -0.0612
    1W        W44552  12.457   7.273   9.269  0.1435  0.1569 -0.0023
    1W        W44553  15.788   7.636   8.197 -0.2138 -0.1697 -0.1139
    1W        W44554   8.196  21.648   1.468 -0.1246 -0.2253  0.0108
    1W        W44555   9.114  24.751   1.420 -0.1674 -0.0207  0.0258
    1W        W44556   9.655  24.325   3.046  0.2078 -0.0377  0.0461
    1W        W44557   2.023  19.779   0.367 -0.3145  0.0899  0.0729
    1W        W44558  16.712  14.623   8.004 -0.0847 -0.4059  0.3168
    1W        W44559  14.173  22.858   0.265  0.0366 -0.1314 -0.0900
    1W        W44560  27.681  18.133   8.051  0.0778 -0.0717  0.0066
    1W        W44561  13.192   6.807   2.316 -0.1130  0.0693 -0.1098
    1W        W44562   6.337  11.263   1.329  0.3151  0.2243 -0.1416
    1W        W44563  19.607  26.094   1.097  0.2407  0.0944 -0.0448
    1W        W44564  20.186   6.959   8.771 -0.1831  0.2904  0.3121
    1W        W44565  25.612  25.971   6.913 -0.0077  0.2752 -0.1642
    1W        W44566   8.438  14.740   7.442 -0.0881 -0.1579  0.1305
    1W        W44567  14.812   2.243   8.394 -0.0685  0.0627  0.1734
    1W        W44568  25.265  12.044   7.041 -0.1084  0.0382  0.1760
    1W        W44569  25.583   4.229   8.648  0.2115  0.2183  0.2074
    1W        W44570  21.186  21.436   0.716 -0.0500  0.1207  0.0263
    1W        W44571   3.251  19.336   5.407 -0.0323 -0.1192  0.1397
    1W        W44572  26.630  10.414   0.175 -0.4206 -0.1073 -0.0191
    1W        W44573   1.386  22.992   1.980  0.4010  0.1864  0.5204
    1W        W44574   7.104   8.662   9.301  0.2090 -0.0526 -0.1677
    1W        W44575  21.596   9.778   1.014  0.0690 -0.3704 -0.2518
    1W        W44576  12.590  13.862   1.246 -0.0166  0.1488  0.0426
    1W        W44577  22.590   5.175   2.400 -0.2995  0.0968  0.0421
    1W        W44578   3.784  19.831   6.737 -0.0881  0.0330 -0.0080
    1W        W44579   9.027  29.256   2.958  0.5178 -0.0080 -0.0774
    1W        W44580   2.205   8.937   8.869 -0.0835 -0.2197  0.0027
    1W        W44581  28.904   1.878   1.720 -0.1457 -0.3091  0.1921
    1W        W44582   4.937  28.188   1.564 -0.1782  0.1428  0.0754
    1W        W44583  15.730  29.698   0.473 -0.0570 -0.0628 -0.0399
    1W        W44584  28.204  13.462   7.828  0.2675  0.0557  0.0656
    1W        W44585  24.455  11.924   6.555 -0.1260  0.1730  0.1103
    1W        W44586   4.482  18.934   0.825  0.1546 -0.1406 -0.1505
    1W        W44587  19.200  16.422   8.270 -0.0568 -0.0303 -0.3160
    1W        W44588  11.927   7.526   8.487  0.0619  0.3358  0.0265
    1W        W44589  10.567  24.867   8.226 -0.0360  0.0999  0.0934
    1W        W44590  11.729  14.611   7.912 -0.1144 -0.0263  0.0376
    1W        W44591  19.572  25.729   0.666  0.0170  0.1003  0.0752
    1W        W44592   2.866   4.231   7.160  0.0226  0.1119  0.0699
    1W        W44593   8.777   6.095   6.719  0.0624 -0.0562 -0.2431
    1W        W44594   6.224  27.353   2.735 -0.0849  0.1315  0.0704
    1W        W44595   7.200  25.975   2.175 -0.1141 -0.0256  0.1247
    1W        W44596   4.029  14.382   7.992 -0.0892  0.1825  0.0520
    1W        W44597  16.667   5.225   9.230  0.2329 -0.2892  0.0883
    1W        W44598   2.109  18.376   1.200 -0.0598  0.0942  0.0708
    1W        W44599  12.971  27.144   0.435  0.1875 -0.1442 -0.0799
    1W        W44600   1.921   3.234   2.652 -0.1981  0.1444  0.1165
    1W        W44601  12.691  19.721   0.412 -0.1731 -0.0003 -0.1643
    1W        W44602  16.679  24.973   7.842  0.0997 -0.2365 -0.2955
    1W        W44603   1.811   2.020   2.110 -0.0282  0.2988  0.1312
    1W        W44604   8.967   4.088   7.008 -0.0852  0.2509  0.1046
    1W        W44605   8.110  12.122   8.763  0.1400 -0.1477 -0.3403
    1W        W44606  15.397  19.967   2.011 -0.2964  0.4186 -0.0250
    1W        W44607  10.774  13.734   0.498 -0.2531 -0.0904 -0.1836
    1W        W44608   6.395   2.107   7.535 -0.1160 -0.0686 -0.4443
    1W        W44609  30.136  25.337   8.246 -0.1728 -0.3234  0.1079
    1W        W44610  15.187  28.327   1.559 -0.0600  0.1105 -0.1080
    1W        W44611   5.850  26.554   8.039  0.1861 -0.1257  0.0491
    1W        W44612  29.488  15.807   8.405  0.0662  0.0474  0.0391
    1W        W44613  25.001   2.781   7.106  0.1740 -0.0351  0.2719
    1W        W44614  23.640  12.994   0.646 -0.0102  0.0473  0.1251
    1W        W44615  28.877  12.369   6.239 -0.1989 -0.2339 -0.1374
    1W        W44616  14.725   1.104   3.827 -0.1325 -0.0814  0.1235
    1W        W44617   0.366  12.721   1.219 -0.2497  0.2109 -0.0384
    1W        W44618   6.422  15.489   0.364 -0.0090 -0.0437 -0.0526
    1W        W44619   0.058  11.183   0.316 -0.2637  0.1754 -0.0595
    1W        W44620   3.058  11.362   7.741  0.0625 -0.0859 -0.1420
    1W        W44621   5.791   6.213   8.578  0.1268 -0.0834  0.0258
    1W        W44622  17.426  27.369   0.176  0.0892  0.1566  0.1033
    1W        W44623  13.480  10.140   2.600 -0.1193 -0.2715  0.0333
    1W        W44624   6.788   2.275   7.852  0.0927 -0.3963 -0.1289
    1W        W44625  17.012  26.517   8.725  0.0398  0.0571 -0.0717
    1W        W44626   9.762   3.445   8.352  0.1606  0.2000 -0.3554
    1W        W44627  14.268  11.116   1.398  0.3902 -0.0661 -0.0917
    1W        W44628   2.547  22.996   0.667 -0.1247 -0.3800 -0.1609
    1W        W44629  15.320   9.662   1.005  0.1500 -0.2661 -0.1123
    1W        W44630  24.930  12.084   2.317  0.2436  0.2293 -0.0322
    1W        W44631  12.966   4.486   0.769 -0.3061  0.0836 -0.0585
    1W        W44632  30.078   4.730   6.821 -0.0488  0.2011 -0.1176
    1W        W44633  12.462  26.083   7.598 -0.2136  0.2077 -0.1454
    1W        W44634   0.982   1.853   1.512  0.0633  0.0974 -0.1917
    1W        W44635   8.626  12.523   1.951  0.1933  0.2167 -0.0975
    1W        W44636  25.261   0.797   7.070  0.2161 -0.3000 -0.2788
    1W        W44637  25.248   9.520   6.330 -0.1030  0.1994 -0.0804
    1W        W44638  15.668  23.270   0.130  0.2138  0.1209 -0.1561
    1W        W44639   9.546  20.043   1.800  0.0862  0.0894 -0.1926
    1W        W44640  24.132  24.377   7.630 -0.0722 -0.1322  0.1782
    1W        W44641  12.786  14.989   8.167 -0.1705  0.2633 -0.0679
    1W        W44642   0.331  16.382   5.653  0.2813  0.4528 -0.1269
    1W        W44643  13.225   3.001   1.801  0.0696  0.3960  0.2435
    1W        W44644   5.124  18.591   0.855 -0.1074 -0.0561 -0.2322
    1W        W44645  23.348  22.406   1.552 -0.1860  0.1733 -0.0544
    1W        W44646   3.973  15.633   8.721 -0.0500  0.0576 -0.3493
    1W        W44647   8.937  16.907   2.118 -0.1708 -0.1020  0.0871
    1W        W44648  10.459  29.475   2.172 -0.0237 -0.0376  0.0191
    1W        W44649  27.069  12.223   8.280  0.2041  0.0566  0.1130
    1W        W44650  16.696  22.580   0.563 -0.0685 -0.0276 -0.1967
    1W        W44651   3.188   4.559   0.482 -0.3188  0.2613 -0.0525
    1W        W44652  29.800   3.748   6.589 -0.0204 -0.2248 -0.3506
    1W        W44653  29.058   9.750   1.185  0.1517  0.1667  0.0342
    1W        W44654  28.022   3.598   8.981 -0.2889  0.1549 -0.1332
    1W        W44655  23.101   4.476   9.008 -0.0465  0.1061 -0.2963
    1W        W44656  20.806  22.831   0.690  0.2075 -0.3538  0.3178
    1W        W44657   6.030  27.528   0.741 -0.0398 -0.2268 -0.0313
    1W        W44658  19.240  16.492   9.200  0.4535  0.1697 -0.1029
    1W        W44659   7.571  17.250   8.235  0.0594 -0.2422 -0.1103
    1W        W44660  18.033  13.431   6.905  0.1275  0.1032 -0.1100
    1W        W44661   0.741  27.543   1.394 -0.2593  0.2204  0.0357
    1W        W44662  15.164   6.199   2.245 -0.0246 -0.1491 -0.3582
    1W        W44663   9.504   1.357   8.436  0.0847 -0.2260  0.2354
    1W        W44664   8.050  22.156   1.850 -0.3349 -0.0146 -0.1892
    1W        W44665  21.866  14.849   8.452  0.1642  0.1346  0.2769
    1W        W44666   5.144  22.980   1.905  0.0919 -0.1007 -0.1466
    1W        W44667  12.936  25.771   7.800 -0.1517 -0.0322 -0.1958
    1W        W44668  25.490  25.644   7.290 -0.2302 -0.1900 -0.1504
    1W        W44669   6.998  19.796   5.951 -0.1223  0.0015 -0.4103
    1W        W44670  20.040   2.535   2.337 -0.0433  0.2162  0.3708
    1W        W44671  16.152  18.747   7.148 -0.1687  0.3206  0.1048
    1W        W44672  28.370   6.749   9.383 -0.0990 -0.2443 -0.0410
    1W        W44673  20.437  23.727   0.907  0.1085  0.2229 -0.1151
    1W        W44674  17.396  26.960   0.975 -0.0218  0.0254  0.3468
    1W        W44675   0.655   1.107   9.221 -0.2003  0.1987 -0.1727
    1W        W44676  25.392  19.741   0.878 -0.1441  0.0693  0.0086
    1W        W44677   3.139   4.562   1.113 -0.0672  0.2102  0.3733
    1W        W44678  26.837  25.497   8.163  0.2816 -0.1163  0.0158
    1W        W44679  27.059   2.297   1.459 -0.1195 -0.1608 -0.0423
    1W        W44680  21.339   3.612   6.607  0.0073 -0.0689 -0.2784
    1W        W44681  23.679  26.600   9.048  0.0849  0.1061 -0.1465
    1W        W44682  22.746  15.318   1.554 -0.1158  0.0503 -0.0626
    1W        W44683   1.913  25.074   1.519 -0.1711 -0.2125 -0.0216
    1W        W44684   7.116  17.944   6.891 -0.0895 -0.2838  0.1909
    1W        W44685  28.075  20.959   1.168 -0.1099 -0.1283 -0.0437
    1W        W44686   6.201  26.737   0.863  0.1423  0.0584 -0.0298
    1W        W44687   0.242  14.428   6.052 -0.0018  0.0320  0.1138
    1W        W44688   5.987   9.456   2.309 -0.0348 -0.0731 -0.2001
    1W        W44689  25.924  17.334   0.681 -0.0482  0.0220 -0.0405
    1W        W44690   3.819  21.297   4.864 -0.0451  0.1115 -0.0673
    1W        W44691  21.458  12.697   8.781  0.0847 -0.2212  0.1680
    1W        W44692   7.450  25.586   1.311 -0.2515  0.0833  0.1626
    1W        W44693   0.673   2.980   0.432  0.2383 -0.0571  0.0338
    1W        W44694   6.958   1.298   3.991  0.2444  0.1151 -0.2129
    1W        W44695  10.602  23.406   7.959 -0.0846 -0.1747  0.0057
    1W        W44696   3.966  11.374   0.157 -0.1748 -0.0838 -0.0126
    1W        W44697  13.672  21.695   8.463 -0.2955  0.0215 -0.0751
    1W        W44698  21.287  22.417   2.191 -0.1033  0.4260  0.1308
    1W        W44699  19.678  24.059   3.231 -0.0912 -0.0338 -0.0297
    1W        W44700   8.965   0.030   8.962  0.1910  0.3651  0.0890
    1W        W44701  24.848   6.426   3.555 -0.2227  0.0361 -0.2589
    1W        W44702   0.401  13.858   8.904  0.0971 -0.0796 -0.1330
    1W        W44703  26.199   1.071   7.521 -0.3406  0.3575 -0.1157
    1W        W44704  12.124  13.080   3.069 -0.0738 -0.2038 -0.0299
    1W        W44705   0.324   0.654   6.669 -0.0838  0.4356 -0.1689
    1W        W44706   5.171  15.800   0.908  0.0096  0.2194  0.1857
    1W        W44707  29.728  15.187   5.821  0.3900 -0.2080  0.0968
    1W        W44708   2.642  14.073   6.197 -0.0256 -0.0509  0.0164
    1W        W44709  26.623   0.678   8.934  0.3658  0.4431 -0.0547
    1W        W44710  13.309  15.263   7.052  0.1182  0.0472 -0.0525
    1W        W44711  13.817  22.632   2.811 -0.2822 -0.2179  0.1463
    1W        W44712   6.255   3.123   8.825 -0.1831 -0.3089  0.2287
    1W        W44713  28.723  28.716   7.366  0.1306  0.0574 -0.0129
    1W        W44714  27.350  13.394   6.292 -0.0606 -0.1510 -0.1106
    1W        W44715   9.281  12.745   9.123 -0.2272 -0.0599 -0.1770
    1W        W44716  27.492  19.488   1.135  0.2792  0.0679  0.2060
    1W        W44717  10.759  26.363   0.910 -0.2496  0.1027 -0.0737
    1W        W44718  23.568  28.478   0.203 -0.1105 -0.0139 -0.2314
    1W        W44719  23.434  28.616   3.769  0.3518 -0.3348  0.0943
    1W        W44720   4.484   0.136   7.192 -0.0550  0.0171  0.0899
    1W        W44721  26.962   0.459   7.421  0.1305  0.1078  0.0537
    1W        W44722  28.878  21.459   6.033 -0.1503  0.1532 -0.0201
    1W        W44723  24.631   4.715   6.367  0.0302 -0.0435  0.0440
    1W        W44724  13.138  19.440   7.335  0.0595 -0.0673  0.2993
    1W        W44725   9.340  26.342   8.680 -0.2465 -0.2918  0.0135
    1W        W44726   5.483  17.112   7.698  0.0849  0.2486 -0.1127
    1W        W44727  22.097   3.655   1.050  0.3659  0.1151 -0.3736
    1W        W44728   3.772  25.553   1.994 -0.4045 -0.0891  0.2676
    1W        W44729   8.137  14.866   1.801 -0.3949 -0.0213  0.0784
    1W        W44730   6.746  15.856   8.176 -0.1568  0.0139 -0.0165
    1W        W44731   7.761  19.746   0.720 -0.2810  0.2114  0.0580
    1W        W44732  26.565   4.906   0.532  0.1148 -0.2503  0.2362
    1W        W44733   5.394  27.640   7.824  0.2772 -0.0550 -0.0967
    1W        W44734  21.206  14.709   0.062 -0.2866 -0.0073  0.4585
    1W        W44735  13.702   7.942   2.225 -0.0583 -0.1861  0.0116
    1W        W44736  16.682  11.618   0.626  0.0889 -0.3385 -0.3161
    1W        W44737  19.181   7.699   0.392 -0.0201 -0.2586 -0.0138
    1W        W44738   3.676   4.252   6.926 -0.2390 -0.0707 -0.1239
    1W        W44739   1.790  10.132   2.730 -0.1039  0.0779  0.0359
    1W        W44740   7.763  23.576   6.441 -0.2748  0.1436  0.1573
    1W        W44741  17.143   9.318   1.813  0.1968  0.2897  0.0013
    1W        W44742  12.360  21.893   6.677 -0.3298 -0.0585 -0.1034
    1W        W44743  15.874  21.863   7.442  0.0520 -0.0275  0.2080
    1W        W44744  13.229  25.965   2.536  0.1412 -0.2788 -0.2405
    1W        W44745   8.704   2.204   1.912  0.1659  0.1337 -0.2485
    1W        W44746  24.065  25.244   0.703  0.0489  0.2310 -0.0671
    1W        W44747   1.480  21.837   1.092 -0.1952  0.2803 -0.0650
    1W        W44748  29.732  13.813   6.197  0.0847  0.4837  0.1175
    1W        W44749  12.164  25.021   2.891 -0.0332  0.1729 -0.0386
    1W        W44750   4.542  18.081   6.512 -0.0346 -0.0825 -0.1520
    1W        W44751   8.689  19.872   9.000  0.0699  0.0506 -0.0864
    1W        W44752  15.463  25.204   7.487  0.1051 -0.2333  0.2178
    1W        W44753   0.798  29.683   7.591  0.2668 -0.0878  0.2440
    1W        W44754  17.726   3.976   3.156  0.0904 -0.0679 -0.1403
    1W        W44755   8.840  13.764   8.345  0.0104  0.1352  0.1773
    1W        W44756  13.556   3.160   0.284  0.3020 -0.1562  0.1459
    1W        W44757  27.240  24.684   1.327 -0.1272 -0.0192 -0.0053
    1W        W44758  28.852   1.556   0.539  0.3785  0.0880 -0.1548
    1W        W44759  16.113   0.203   2.253 -0.1050  0.2435 -0.1104
    1W        W44760  24.036   4.665   0.023  0.0322  0.0081 -0.1167
    1W        W44761   9.256  23.904   6.239  0.3041  0.2507 -0.0070
    1W        W44762  27.428   0.991   7.154  0.0299 -0.3501  0.1980
    1W        W44763   2.769   8.174   9.088  0.1100  0.2193  0.4047
    1W        W44764  24.855   7.027   2.067  0.1261 -0.3915  0.2283
    1W        W44765  15.267   4.222   2.693 -0.3383 -0.0232  0.2707
    1W        W44766  14.940   1.044   1.943  0.2777 -0.0798 -0.2172
    1W        W44767   6.128  12.993   1.139 -0.0687  0.2241  0.2744
    1W        W44768  24.142  25.361   6.676 -0.2101  0.4379  0.0008
    1W        W44769  22.335  18.039   1.900 -0.0793  0.2637 -0.0932
    1W        W44770  15.801   6.007   0.350 -0.0017 -0.2075  0.3321
    1W        W44771  27.577  25.948   0.460  0.3883  0.0449 -0.0448
    1W        W44772  23.694  24.164   7.799  0.3538  0.1038 -0.3035
    1W        W44773  11.736  28.851   8.596 -0.0511 -0.1497  0.1368
    1W        W44774  26.300   7.180   8.624  0.1101  0.2037 -0.1301
    1W        W44775   9.857  22.309   7.624 -0.0867 -0.3162 -0.1195
    1W        W44776  18.314  12.114   0.594 -0.1688 -0.0740  0.0317
    1W        W44777  12.719  17.990   9.322 -0.1180  0.1640  0.2678
    1W        W44778  15.342  11.618   1.200 -0.2399 -0.1010 -0.2068
    1W        W44779  20.050   2.606   0.534  0.0243 -0.1424  0.4409
    1W        W44780   0.067  13.994   6.426 -0.1762  0.1311  0.2233
    1W        W44781  13.123  14.307   8.842 -0.0481  0.0422  0.1108
    1W        W44782  23.348  18.167   0.909 -0.4200  0.2361 -0.1588
    1W        W44783   6.467  10.350   0.111  0.0707  0.0319  0.5703
    1W        W44784  27.130  27.806   6.210 -0.1098  0.0654 -0.1637
    1W        W44785  12.148   4.192   1.728  0.1556 -0.1459  0.0859
    1W        W44786  23.679   5.415   1.793  0.1303  0.0006 -0.0550
    1W        W44787  20.579  20.318   1.744 -0.2898  0.2201  0.2841
    1W        W44788  19.624  15.535   0.893 -0.1163  0.2215  0.2938
    1W        W44789   7.558   8.644   9.024 -0.2196  0.2793 -0.0078
    1W        W44790  30.041  29.253   7.921 -0.2765  0.1327 -0.0885
    1W        W44791   6.207  13.586   8.350  0.3440  0.1584 -0.0268
    1W        W44792   4.371  29.349   8.340  0.1017 -0.1494  0.2016
    1W        W44793  17.518  22.114   7.060  0.0874 -0.1886  0.2375
    1W        W44794   7.813  30.082   1.915  0.1557 -0.0956  0.2334
    1W        W44795   8.360  14.825   0.581 -0.1560 -0.0863  0.0292
    1W        W44796   8.721   2.485   3.404 -0.0370 -0.4459 -0.2681
    1W        W44797   1.879  13.048   6.751 -0.0498 -0.1643  0.0347
    1W        W44798  14.522   1.893   0.947 -0.0922 -0.1977  0.3948
    1W        W44799   8.184  10.927   1.215 -0.1210 -0.2034 -0.0033
    1W        W44800   1.252  18.408   7.781  0.0646 -0.1226 -0.1131
    1W        W44801  29.030  24.199   0.650 -0.0535 -0.1444  0.1050
    1W        W44802  14.094  19.097   2.070  0.1698  0.0946 -0.1005
    1W        W44803  15.691  20.203   1.592  0.2506  0.0664 -0.0678
    1W        W44804   0.476  12.865   8.875 -0.3502 -0.2424 -0.0073
    1W        W44805  23.139   2.993   6.745  0.1492  0.0998  0.1907
    1W        W44806  22.209   0.064   8.785 -0.1259 -0.0486 -0.1157
    1W        W44807  25.841  14.490   5.900 -0.1578 -0.0363 -0.2134
    1W        W44808   5.749   7.930   2.811  0.0617 -0.0663  0.1814
    1W        W44809  10.559  20.479   6.690 -0.0273  0.0134  0.3784
    1W        W44810   8.474  28.161   2.678  0.1342  0.1512  0.0028
    1W        W44811  19.207  18.330   2.103  0.0700  0.2424  0.0768
    1W        W44812   0.278  11.950   9.242  0.0768 -0.0783  0.3295
    1W        W44813  25.696  22.987   2.433  0.1683 -0.2141  0.2594
    1W        W44814  27.245  28.625   9.304  0.1812  0.0735 -0.0812
    1W        W44815   2.422   3.361   9.201  0.0813 -0.2156  0.2449
    1W        W44816  12.378   7.920   7.819  0.0847  0.0548  0.4431
    1W        W44817  15.995   5.328   3.803  0.3288 -0.0968  0.1868
    1W        W44818  25.190   6.016   2.091 -0.2283 -0.1724  0.0318
    1W        W44819  17.286  22.961   6.632  0.0101 -0.0761  0.2082
    1W        W44820  11.175   9.598   2.733 -0.1406 -0.0725 -0.0302
    1W        W44821  16.918   2.011   1.131  0.1645 -0.2425 -0.2488
    1W        W44822   4.538  12.440   7.376  0.0196  0.1351 -0.0526
    1W        W44823   0.452  10.698   1.027  0.1306 -0.3453 -0.2923
    1W        W44824  12.826  16.639   0.002  0.0906  0.1349 -0.1703
    1W        W44825  15.018  30.046   1.173 -0.0582 -0.0232 -0.0373
    1W        W44826  14.143  19.152   1.083 -0.0460  0.1656  0.0979
    1W        W44827   6.455  11.149   1.766 -0.0765  0.1629 -0.2352
    1W        W44828  23.180  28.063   2.585  0.2403  0.3840  0.1164
    1W        W44829  10.573  16.620   9.020  0.1842 -0.4050  0.2569
    1W        W44830  21.931  25.376   6.427 -0.2918  0.1343 -0.0253
    1W        W44831  18.410   2.647   0.917 -0.1825  0.1378 -0.4151
    1W        W44832  11.934  12.885   9.389 -0.3965 -0.0168 -0.0810
    1W        W44833  21.746  27.108   7.438  0.1309  0.4178 -0.1775
    1W        W44834  14.356  10.316   2.636  0.3262  0.1269  0.3682
    1W        W44835   9.379  25.098   7.083 -0.2663 -0.0690  0.0488
    1W        W44836  18.398  11.837   7.588  0.2908 -0.0554 -0.2267
    1W        W44837  19.887  24.001   6.862  0.1226  0.2750  0.2457
    1W        W44838  16.269   0.963   1.988 -0.0214  0.1715  0.1936
    1W        W44839  13.922   2.268   8.597  0.1245  0.1177  0.0909
    1W        W44840   0.740  24.158   5.631 -0.1697  0.0419 -0.2444
    1W        W44841   4.278  26.930   8.788 -0.3943 -0.2678 -0.1445
    1W        W44842  20.160  11.728   8.524  0.0281 -0.0791  0.1804
    1W        W44843  13.100  20.600   1.536 -0.0316  0.0224 -0.1007
    1W        W44844   9.270   1.006   1.689 -0.2268  0.1609 -0.3647
    1W        W44845   3.112  29.351   8.707 -0.0701  0.2295  0.1207
    1W        W44846  20.356  20.760   8.909 -0.0800  0.0831 -0.1092
    1W        W44847   7.437   8.068   2.278 -0.2252  0.0558  0.1237
    1W        W44848  24.124  21.774   9.400 -0.1217 -0.0032  0.2755
    1W        W44849   1.073   1.731   1.019 -0.1195 -0.1473  0.1588
    1W        W44850  27.699  19.791   9.032 -0.3558  0.0775 -0.0169
    1W        W44851  23.036   5.700   2.441  0.1122 -0.1932 -0.0649
    1W        W44852   6.670   4.688   0.476 -0.1270  0.0460 -0.1114
    1W        W44853  28.501  17.049   0.654 -0.1559  0.3759 -0.1295
    1W        W44854   0.264   3.662   0.445 -0.2486  0.1958  0.0799
    1W        W44855  25.881   9.507   8.775  0.0567  0.4337  0.0730
    1W        W44856  10.100   9.368   9.041 -0.0246 -0.0568 -0.0243
    1W        W44857  26.784  22.617   1.099 -0.1091 -0.3460 -0.1167
    1W        W44858  19.945   0.524   2.489  0.0518  0.1855 -0.0768
    1W        W44859   1.960   5.738   8.375 -0.1950 -0.2475 -0.1513
    1W        W44860  21.495  22.361   9.165 -0.2141 -0.0426  0.0619
    1W        W44861  10.745   3.770   9.314  0.2473  0.0273 -0.0223
    1W        W44862  12.868  28.767   1.780 -0.2894  0.1288 -0.1241
    1W        W44863   6.373  21.205   1.357 -0.1454  0.1592 -0.3875
    1W        W44864   8.942   6.100   8.453  0.0958 -0.4870  0.1624
    1W        W44865  13.977  27.054   7.895 -0.0291 -0.1006  0.0410
    1W        W44866   7.122   7.508   3.433 -0.0947 -0.0483  0.0083
    1W        W44867   7.548  19.697   7.027 -0.1226 -0.0117 -0.1520
    1W        W44868  19.552   9.935   8.776 -0.2074 -0.1091 -0.1076
    1W        W44869  21.557  10.026   7.246  0.4041  0.1225  0.1176
    1W        W44870  23.312   9.706   6.709  0.0631  0.1390  0.2595
    1W        W44871  26.306  26.146   7.491 -0.2551  0.0139  0.1516
    1W        W44872   8.627   8.380   1.514  0.0566  0.2230  0.1122
    1W        W44873   5.159  11.733   8.808  0.1229 -0.0072 -0.3186
    1W        W44874   5.499  29.259   0.609  0.2223  0.2664 -0.1522
    1W        W44875   1.931  11.530   8.460  0.0678 -0.1649 -0.0895
    1W        W44876  18.490   8.105   7.253 -0.0318 -0.2963 -0.1378
    1W        W44877  18.297   3.214   2.527 -0.1655  0.0425 -0.0406
    1W        W44878  14.660  21.146   7.330 -0.4090 -0.1776 -0.2962
    1W        W44879   3.553  28.902   7.801 -0.1775  0.0924  0.1498
    1W        W44880   2.871  22.605   0.914 -0.2088 -0.2625 -0.0647
    1W        W44881   0.068  17.546   7.526 -0.2379 -0.4023 -0.0101
    1W        W44882  11.803   1.161   1.977 -0.1325 -0.3514  0.2118
    1W        W44883  11.092   0.855   8.540  0.1793 -0.0355  0.1157
    1W        W44884   6.920  12.367   0.001 -0.0087  0.1812  0.3406
    1W        W44885  29.812   4.704   0.659 -0.1515 -0.2492  0.1246
    1W        W44886  12.573   9.128   1.321  0.1448  0.0715 -0.0059
    1W        W44887   1.651  17.488   6.341 -0.3030 -0.2856 -0.0009
    1W        W44888  17.358  26.062   7.529 -0.0674 -0.0532 -0.0039
    1W        W44889  19.718  24.993   6.369 -0.2643  0.4882 -0.2378
    1W        W44890   0.989  17.350   0.325 -0.0835  0.1978  0.0495
    1W        W44891  19.550  13.888   8.449  0.1111 -0.0378  0.0744
    1W        W44892   4.646  25.049   6.681 -0.2077 -0.1182 -0.1181
    1W        W44893   0.192  28.983   9.268 -0.2228 -0.0268 -0.0127
    1W        W44894   3.723  20.271   5.266  0.1331 -0.2456  0.1663
    1W        W44895  17.104   0.603   3.419  0.1890  0.0603 -0.2537
    1W        W44896  13.371   1.173   2.972 -0.3042  0.2760  0.1948
    1W        W44897  27.629  20.801   1.145  0.1122  0.1819 -0.1639
    1W        W44898   5.120  20.873   0.710  0.1852  0.1030 -0.0134
    1W        W44899  29.272  24.242   8.828 -0.0378 -0.1835  0.4515
    1W        W44900  21.998   4.300   0.809  0.0168  0.1422 -0.1509
    1W        W44901  15.679  29.358   2.172 -0.3175 -0.0195  0.1835
    1W        W44902   3.044   5.513   0.264 -0.0680 -0.1133  0.0689
    1W        W44903  15.274  24.147   9.223 -0.1212  0.0706  0.2659
    1W        W44904   7.412   5.937   2.307 -0.3865  0.0114  0.0582
    1W        W44905  28.200  23.818   7.628  0.0991  0.0615  0.3040
    1W        W44906  12.793  26.131   2.249 -0.0577  0.0189  0.1149
    1W        W44907  24.150  12.627   5.842  0.5640 -0.0273 -0.0788
    1W        W44908   8.431   6.444   0.315  0.0561  0.0466 -0.1988
    1W        W44909  11.332  22.595   7.921 -0.1489  0.0300  0.0992
    1W        W44910  26.968  26.499   0.247  0.3591 -0.2765  0.2468
    1W        W44911  17.176   1.076   1.878 -0.0605 -0.2491 -0.2173
    1W        W44912  15.635  22.701   7.806 -0.0497 -0.0857 -0.0999
    1W        W44913  15.608  26.831   7.905  0.0985 -0.1276 -0.2072
    1W        W44914  19.493  26.890   7.754  0.1292  0.2371 -0.1319
    1W        W44915   5.259  20.008   0.770  0.0389  0.2979  0.1282
    1W        W44916  14.447  20.488   2.000 -0.4489 -0.0767  0.0225
    1W        W44917  14.380   4.121   8.900 -0.0988 -0.2613 -0.0981
    1W        W44918  23.730  24.723   7.734  0.0344  0.1523  0.0129
    1W        W44919  12.609  20.739   8.274  0.1941 -0.1037 -0.0629
    1W        W44920  15.378  22.191   1.469 -0.3319  0.0288 -0.0478
    1W        W44921  18.070  22.298   0.943 -0.1652 -0.3260  0.0109
    1W        W44922  13.300  27.288   0.864 -0.0379 -0.2553  0.1045
    1W        W44923   7.048   9.303   7.800  0.1635 -0.1628 -0.1871
    1W        W44924  22.258  11.301   7.455  0.3955 -0.1427 -0.1841
    1W        W44925  15.083  29.136   8.811  0.0052  0.1730  0.0232
    1W        W44926  11.616  28.317   2.448  0.0985  0.1499  0.0256
    1W        W44927  19.627   7.025   2.089  0.0387 -0.1459 -0.0047
    1W        W44928   0.067   9.059   1.501  0.0664 -0.0873 -0.1237
    1W        W44929  13.031  18.077   8.089  0.0145 -0.4589  0.0812
    1W        W44930   3.093  23.956   5.322  0.0446 -0.2454 -0.0430
    1W        W44931   4.515   4.377   9.020  0.2440  0.0360  0.0813
    1W        W44932  13.716   6.585   8.421  0.1872 -0.3899  0.2630
    1W        W44933  23.256   1.402   3.102  0.1664 -0.0019 -0.1713
    1W        W44934   6.926  14.557   1.772 -0.0182  0.1766 -0.0029
    1W        W44935   3.897  16.910   2.030  0.2481  0.0170 -0.2409
    1W        W44936   9.710   4.382   1.498  0.2251 -0.1616  0.2360
    1W        W44937  12.732  26.427   9.382  0.1442  0.1465 -0.0252
    1W        W44938   6.006  22.324   0.726  0.1034  0.0165 -0.2338
    1W        W44939   3.481  15.418   8.134  0.1845  0.1496  0.0223
    1W        W44940   9.622  17.148   0.361 -0.1558  0.3398 -0.1202
    1W        W44941  14.625   4.287   7.417  0.1643 -0.0145  0.2316
    1W        W44942  19.739  19.849   9.098 -0.3219  0.0184 -0.0624
    1W        W44943  16.741  23.311   8.036 -0.2661 -0.0202  0.1795
    1W        W44944  30.028   3.300   6.390 -0.0550 -0.0160  0.1114
    1W        W44945  25.017   6.054   9.174 -0.0007 -0.1002  0.1657
    1W        W44946   9.336   0.278   2.347 -0.0843  0.4906  0.1329
    1W        W44947  22.235  10.047   6.677  0.4034  0.3431 -0.0599
    1W        W44948  20.594  29.983   6.869 -0.0227 -0.1185  0.0683
    1W        W44949  17.227  28.768   2.688 -0.1452 -0.1567  0.1152
    1W        W44950   8.381  11.783   0.345 -0.0841 -0.2099 -0.0358
    1W        W44951   1.184  15.549   6.621  0.0184 -0.0966 -0.2530
    1W        W44952   1.233  29.615   7.150 -0.3686 -0.0290 -0.1961
    1W        W44953  27.957   5.112   1.500  0.2210  0.2732  0.0289
    1W        W44954   5.895   5.528   1.400 -0.0773 -0.0927 -0.1425
    1W        W44955  11.864  13.130   2.176  0.2466  0.0787 -0.0939
    1W        W44956   0.629  23.580   6.357 -0.1170 -0.0615 -0.0036
    1W        W44957   4.111  13.279   2.646  0.1157  0.0607 -0.2383
    1W        W44958   1.611   1.525   2.141  0.4222  0.0921 -0.0068
    1W        W44959  23.075  10.845   2.598  0.2785 -0.1369  0.2097
    1W        W44960  25.675  21.488   7.900  0.1005 -0.1150  0.0748
    1W        W44961  11.442  26.562   1.754  0.0226  0.1280  0.0224
    1W        W44962  11.468   5.864   7.138 -0.0142 -0.3025 -0.2729
    1W        W44963   3.725  10.149   9.149  0.1113 -0.0319 -0.1553
    1W        W44964   8.024   0.822   3.494  0.4814 -0.0585  0.1671
    1W        W44965   3.087  25.726   0.594  0.0496  0.1576 -0.2429
    1W        W44966  17.888  13.377   7.482  0.1022  0.1443 -0.0582
    1W        W44967  14.249  25.407   0.308  0.1911  0.1426 -0.0271
    1W        W44968  12.909  26.068   1.154  0.0673 -0.1924 -0.0775
    1W        W44969  19.446  13.346   2.177  0.1922 -0.3136  0.0742
    1W        W44970   4.755  11.366   7.956  0.0219 -0.2628 -0.0708
    1W        W44971  20.638   0.142   3.166  0.1187  0.1410  0.1679
    1W        W44972   0.592   7.791   1.098 -0.2020  0.0806  0.1534
    1W        W44973  22.709  10.234   9.137  0.1690  0.2376 -0.0438
    1W        W44974  21.706  27.821   0.935  0.2626  0.2010  0.2525
    1W        W44975  19.898   2.799   3.150 -0.1165 -0.1037  0.0183
    1W        W44976   3.105   2.041   7.548 -0.0988  0.0543 -0.3408
    1W        W44977  28.472   6.341   6.717 -0.1127  0.2429  0.0881
    1W        W44978  15.330   3.473   7.837 -0.1691 -0.1464 -0.0980
    1W        W44979  14.956  22.916   8.550  0.2026 -0.0788 -0.0414
    1W        W44980  20.983  23.468   8.339 -0.1988 -0.1481 -0.2152
    1W        W44981  28.986  25.232   1.053 -0.1749  0.2770 -0.2089
    1W        W44982  28.650  19.374   7.798 -0.2541  0.2110 -0.0880
    1W        W44983   8.644   7.812   0.838 -0.1925 -0.0966 -0.1862
    1W        W44984  28.318  29.633   7.845  0.0118  0.1592 -0.0524
    1W        W44985   1.289   9.793   0.543  0.1243 -0.4131 -0.0168
    1W        W44986  20.334  19.741   8.215  0.1229  0.0204  0.3348
    1W        W44987  27.537  14.774   8.490  0.1806 -0.1158 -0.0909
    1W        W44988   6.814  17.492   2.054 -0.0025 -0.0052 -0.1147
    1W        W44989  25.311  26.493   8.486  0.1721 -0.2268  0.0641
    1W        W44990   9.063  14.349   1.401 -0.0219 -0.0244  0.1269
    1W        W44991  23.980  15.620   7.668 -0.1640 -0.0347  0.0752
    1W        W44992   9.203  18.086   8.205 -0.0691 -0.3733 -0.1399
    1W        W44993  30.116  21.165   6.883  0.0321 -0.0028  0.1410
    1W        W44994   8.762  26.011   6.231 -0.2565  0.1247  0.2248
    1W        W44995   3.811  22.502   7.183  0.0288 -0.0613  0.0070
    1W        W44996  23.757  28.218   7.269  0.1930 -0.1409 -0.2026
    1W        W44997   7.629  10.210   0.730  0.5377 -0.1966  0.2405
    1W        W44998  26.320  23.502   5.967  0.0638  0.2679 -0.3096
    1W        W44999   7.533  26.534   0.223 -0.0941 -0.2093 -0.0580
    1W        W45000   4.147  18.266   7.837  0.0318  0.0049  0.1314
    1W        W45001  13.383  19.391   1.061 -0.2560 -0.0365 -0.0601
    1W        W45002  21.104  16.153   0.130  0.2693  0.0821 -0.0459
    1W        W45003  16.583   2.237   3.417 -0.2158 -0.1954 -0.1994
    1W        W45004  22.192  15.708   8.846  0.0734 -0.0776  0.1441
    1W        W45005   3.557  28.877   0.205  0.0343 -0.0533  0.0795
    1W        W45006  26.565   7.472   6.553  0.1428 -0.0634 -0.0616
    1W        W45007  29.030  18.637   0.256  0.1475  0.3149 -0.0712
    1W        W45008  21.719  25.566   0.248  0.0628 -0.2752 -0.0700
    1W        W45009  23.688  13.765   9.220 -0.0163 -0.2095  0.1924
    1W        W45010   6.266  11.725   2.380 -0.1914 -0.0370 -0.0632
    1W        W45011  29.725  16.164   6.673  0.1618 -0.0517  0.1745
    1W        W45012   5.576  27.214   1.767 -0.0526  0.1046 -0.0641
    1W        W45013  27.813  24.237   2.970  0.1852  0.0616  0.1499
    1W        W45014   4.509  25.528   6.287 -0.1883  0.0306 -0.0589
    1W        W45015   5.890   3.171   0.823  0.0185 -0.0626  0.1855
    1W        W45016   9.161  20.607   7.615  0.1410  0.0721  0.1242
    1W        W45017   8.934   0.097   1.996 -0.1734 -0.1470 -0.0341
    1W        W45018  25.387  12.222   7.847 -0.1135 -0.1130  0.0572
    1W        W45019  15.321  20.805   8.879 -0.0499  0.0757 -0.2292
    1W        W45020   1.443  23.026   0.255 -0.3574  0.0135 -0.0743
    1W        W45021  22.286  29.306   8.965 -0.0210  0.0330  0.1589
    1W        W45022  22.207   2.733   8.278 -0.2776  0.3029 -0.2607
    1W        W45023  15.626  16.717   9.286 -0.1345 -0.0081 -0.2545
    1W        W45024  17.154  22.827   7.562 -0.0723 -0.3358  0.2950
    1W        W45025  11.362  26.898   7.677 -0.2432  0.1558  0.1836
    1W        W45026  16.396   4.506   1.976  0.3085 -0.0119 -0.1316
    1W        W45027   7.684  29.442   3.068 -0.0392 -0.0547  0.1578
    1W        W45028   6.814  28.694   1.824  0.0802  0.4404  0.1044
    1W        W45029  20.158  19.669   1.406 -0.1248 -0.2069  0.1307
    1W        W45030   2.688  29.667   0.755  0.3092 -0.2790  0.0047
    1W        W45031  17.662  22.703   2.470 -0.1822 -0.0241  0.0986
    1W        W45032  12.467  24.059   9.219  0.1174 -0.1437  0.0999
    1W        W45033   6.104   2.053   2.879  0.0624 -0.1724  0.0592
    1W        W45034  21.270   1.719   8.418 -0.0159 -0.0415  0.0008
    1W        W45035  29.505  20.001   1.664 -0.0251 -0.1304  0.2819
    1W        W45036   4.393   5.319   7.904 -0.1595  0.1494 -0.0923
    1W        W45037  20.109  23.501   8.206 -0.0373 -0.3561 -0.0172
    1W        W45038   2.226   2.910   6.369 -0.1263 -0.0390  0.2200
    1W        W45039   3.539  17.584   7.438  0.1658  0.1145 -0.2767
    1W        W45040   2.953   1.447   3.480 -0.0643  0.1341 -0.1615
    1W        W45041  13.971  19.981   8.326  0.0162  0.2243 -0.1365
    1W        W45042  25.319   6.298   2.509  0.2592  0.2124 -0.0858
    1W        W45043  12.271  23.024   9.222 -0.1512  0.0498  0.2992
    1W        W45044  14.411   2.023   1.405 -0.0858 -0.0614 -0.1565
    1W        W45045  17.365   0.703   6.781 -0.1684 -0.1884 -0.0532
    1W        W45046  21.133  13.749   7.600  0.0597  0.1593  0.1967
    1W        W45047  24.479  19.198   6.498  0.0439 -0.1323  0.0613
    1W        W45048   9.966  28.654   8.160 -0.1710  0.2738 -0.3133
    1W        W45049   8.887   9.409   1.736 -0.1674 -0.3416  0.4583
    1W        W45050   2.923   4.182   7.637 -0.1841  0.1083 -0.0539
    1W        W45051   8.564  18.159   9.308 -0.1066 -0.2275  0.0561
    1W        W45052  11.487   7.368   3.297 -0.1126  0.2070  0.1254
    1W        W45053  15.148   4.199   1.209 -0.0749 -0.1653 -0.4240
    1W        W45054   5.574  29.277   3.268  0.1313 -0.0332 -0.0274
    1W        W45055  16.106  19.928   2.208 -0.0010  0.2191 -0.0564
    1W        W45056  21.960  12.612   1.533 -0.2358  0.0524  0.0894
    1W        W45057   1.590  12.815   0.322 -0.1125 -0.1266 -0.1859
    1W        W45058   1.560  18.517   1.328  0.1501  0.1924  0.1096
    1W        W45059  29.352   0.299   1.902 -0.1200 -0.3234  0.1884
    1W        W45060  22.862  17.599   2.088  0.2029  0.1846 -0.1200
    1W        W45061  27.936   4.449   1.421 -0.2340  0.0899  0.3914
    1W        W45062   4.495  10.730   7.646  0.0304 -0.0312 -0.1982
    1W        W45063   0.920  25.724   0.185 -0.0250 -0.1502 -0.1070
    1W        W45064   9.431  20.009   9.091 -0.4134 -0.0312 -0.2506
    1W        W45065  22.626  10.886   0.720  0.1978  0.1281  0.3956
    1W        W45066  27.991   5.483   8.218 -0.0685  0.1801  0.0571
    1W        W45067  21.907  18.442   1.915  0.2835 -0.2398  0.2335
    1W        W45068  23.701  20.307   6.665 -0.1365  0.0107  0.1639
    1W        W45069  12.140  20.510   2.739  0.3587  0.2391  0.0875
    1W        W45070   4.377  11.003   1.573  0.0963 -0.0901 -0.0465
    1W        W45071  24.971   5.462   1.937 -0.1662 -0.1584  0.0405
    1W        W45072  19.854  29.895   1.996  0.1250  0.3645 -0.0663
    1W        W45073  24.156   7.254   8.488 -0.3372 -0.0172  0.0638
    1W        W45074  17.646  10.657   0.450  0.1364  0.1238 -0.3616
    1W        W45075  25.487  11.200   0.778 -0.2439 -0.0676  0.2401
    1W        W45076  14.055   8.721   8.051  0.3858 -0.0837 -0.0371
    1W        W45077  14.295  16.459   1.292  0.1945 -0.4338 -0.2025
    1W        W45078   2.195   8.947   6.184 -0.1591 -0.0210  0.1399
    1W        W45079  27.899  22.988   0.635  0.2983 -0.0265  0.1866
    1W        W45080   0.562  20.275   8.884 -0.1438  0.1292  0.0833
    1W        W45081   9.332  15.139   0.753  0.0986 -0.1010  0.0476
    1W        W45082  17.831  25.531   0.515 -0.1570  0.3218  0.2832
    1W        W45083  12.275  16.085   7.107 -0.0674 -0.0415 -0.1542
    1W        W45084  27.202  26.691   0.671  0.0233 -0.1032  0.2550
    1W        W45085   3.192   3.512   1.318 -0.1823  0.2459 -0.0860
    1W        W45086  18.618  14.959   7.870  0.2573  0.2106  0.2830
    1W        W45087  19.964  27.548   7.303 -0.2258 -0.0216 -0.2632
    1W        W45088   9.803   4.462   7.512  0.0576 -0.0119 -0.1701
    1W        W45089  24.329  12.029   1.498  0.1476 -0.0572 -0.6747
    1W        W45090  27.620  30.095   2.202 -0.1617  0.2535 -0.0012
    1W        W45091   0.298   2.973   1.136 -0.1200 -0.1596  0.1278
    1W        W45092  24.778  18.682   1.628  0.0478  0.0594  0.3617
    1W        W45093  29.762   6.995   2.253 -0.0683 -0.0772  0.0159
    1W        W45094   9.228  23.813   7.866 -0.2547 -0.3674  0.0589
    1W        W45095  26.618   2.896   0.498 -0.2827  0.0055 -0.0581
    1W        W45096  29.291   0.920   3.139  0.1706  0.0829  0.1833
    1W        W45097  26.732  24.095   0.380  0.0076 -0.0024  0.0117
    1W        W45098   7.867  26.630   6.986 -0.0277 -0.1577  0.1649
    1W        W45099  26.302  11.968   5.470 -0.1698  0.1486  0.0458
    1W        W45100  21.541  12.688   8.292 -0.2834  0.0930  0.0674
    1W        W45101  18.962  29.107   7.816 -0.0440 -0.0731  0.2496
    1W        W45102   1.298   3.803   8.771 -0.1955  0.3464  0.3603
    1W        W45103  12.890   1.629   3.672 -0.0542 -0.0107  0.0059
    1W        W45104   2.582  24.236   6.992  0.0735 -0.0354 -0.1519
    1W        W45105  13.766   6.577   2.928  0.2592 -0.0049  0.1917
    1W        W45106  27.305  21.512   2.165  0.0423 -0.2700  0.0244
    1W        W45107  11.348   8.274   8.782 -0.1206 -0.0170 -0.1555
    1W        W45108   8.773  18.143   1.118 -0.0566  0.0807 -0.0200
    1W        W45109  27.751   2.623   8.518  0.0359 -0.2440  0.1387
    1W        W45110  29.336  15.836   6.558 -0.0287 -0.0914 -0.0487
    1W        W45111  26.833  29.470   6.508  0.0710  0.1830 -0.0497
    1W        W45112  21.686   4.640   0.532  0.0157 -0.0467 -0.0085
    1W        W45113  19.476  28.787   8.493 -0.1362 -0.0665  0.0872
    1W        W45114   8.245  28.776   6.825 -0.1970 -0.0411 -0.2524
    1W        W45115  12.516   5.227   2.787 -0.1308  0.2205 -0.0290
    1W        W45116  22.670   7.906   2.367  0.0217  0.1543  0.0865
    1W        W45117  10.707  20.693   7.269 -0.1542 -0.0322 -0.2633
    1W        W45118  21.664  26.834   2.583 -0.0208  0.0590  0.0277
    1W        W45119  21.892  24.207   8.410  0.2168 -0.3244 -0.0491
    1W        W45120  11.677  13.497   0.302  0.0654 -0.1309  0.1494
    1W        W45121  15.388   0.891   1.564  0.0809 -0.0141 -0.0504
    1W        W45122  22.000  21.621   8.189 -0.2543 -0.2347  0.0200
    1W        W45123   6.404  14.456   1.628  0.0410 -0.3518  0.2496
    1W        W45124  15.477   0.399   7.614 -0.0097  0.0394 -0.2578
    1W        W45125  28.963  19.532   6.792  0.0645 -0.0719 -0.2628
    1W        W45126   5.175  15.202   1.779  0.0689 -0.0807  0.0263
    1W        W45127   0.837  24.138   8.545 -0.2318  0.0580  0.0259
    1W        W45128   9.053  20.172   1.754  0.0601 -0.0999  0.0685
    1W        W45129   0.721  17.922   0.238 -0.1711  0.2736 -0.0499
    1W        W45130   5.269  22.677   0.184  0.0932  0.1346 -0.0730
    1W        W45131  28.768  29.626   1.026 -0.1767  0.1732 -0.0364
    1W        W45132  17.210  19.303   0.544  0.0566 -0.1950 -0.0463
    1W        W45133  19.546   1.784   7.680  0.0401 -0.0582 -0.0017
    1W        W45134  16.766  15.161   8.144 -0.0504 -0.0376 -0.2617
    1W        W45135   9.865  28.999   9.008  0.1191  0.0346  0.0884
    1W        W45136   3.172  10.956   1.886 -0.2844  0.3098 -0.0578
    1W        W45137  22.074  23.201   0.664  0.0136 -0.1625  0.4930
    1W        W45138  13.188   2.699   2.676  0.0796  0.2074  0.0864
    1W        W45139  15.438  23.753   1.993 -0.1693 -0.0927  0.0032
    1W        W45140  12.877  26.276   1.670  0.0648  0.2564  0.3430
    1W        W45141  10.775   1.167   7.291 -0.0382 -0.1659  0.1024
    1W        W45142   3.081  28.831   7.600 -0.0472  0.1413  0.0507
    1W        W45143  15.173  16.414   9.310 -0.2491  0.0198 -0.1679
    1W        W45144   2.612   7.458   2.299  0.0363 -0.0586 -0.0450
    1W        W45145  26.481  22.448   8.751 -0.5676  0.0493  0.0347
    1W        W45146  22.756   5.315   0.019 -0.0607 -0.1748  0.0057
    1W        W45147   4.600  12.616   8.515  0.1217 -0.1959 -0.1212
    1W        W45148  28.687  13.107   5.630 -0.2919 -0.0104  0.0497
    1W        W45149  16.080   9.368   0.181  0.2133 -0.0959  0.1333
    1W        W45150  26.811  17.689   8.204 -0.0571  0.1736  0.1869
    1W        W45151  11.266  10.228   2.614  0.3288  0.0421 -0.2461
    1W        W45152   7.398  16.849   8.484  0.4752 -0.2247  0.0567
    1W        W45153  20.868  16.705   1.720 -0.0831 -0.0221  0.2042
    1W        W45154  24.802   9.734   5.521  0.0833 -0.0562  0.0025
    1W        W45155  12.541   7.529   1.990  0.2001 -0.1856  0.2039
    1W        W45156   6.667  26.220   1.826  0.1363 -0.3337  0.1141
    1W        W45157  28.126  18.488   1.362  0.1110  0.1657 -0.0341
    1W        W45158  21.402  28.659   7.762  0.2746  0.3781 -0.2281
    1W        W45159  19.507  23.161   8.616  0.1320  0.1918 -0.1971
    1W        W45160  29.281   1.862   6.489  0.1901  0.1012 -0.2631
    1W        W45161  27.711  14.062   1.229  0.1931  0.1097  0.2786
    1W        W45162  28.920   4.006   1.591 -0.1246  0.0204 -0.3614
    1W        W45163  17.754  23.669   2.749  0.2473  0.4049  0.0036
    1W        W45164  26.107  11.786   0.696  0.1204 -0.0424  0.3836
    1W        W45165   8.133  10.141   8.894  0.2064  0.1000  0.0726
    1W        W45166   1.567  26.083   8.947 -0.3019 -0.0596  0.3267
    1W        W45167   7.657   1.423   8.946  0.0130 -0.1062 -0.1702
    1W        W45168   0.227   8.400   3.042  0.0495 -0.3044  0.3132
    1W        W45169   0.287  12.866   8.194 -0.0779 -0.0395  0.0662
    1W        W45170  10.008   8.694   3.037 -0.1307  0.0080 -0.1862
    1W        W45171  18.999  15.882   7.581 -0.3904 -0.1625 -0.0150
    1W        W45172   1.905  16.008   1.040 -0.0240 -0.0527  0.0320
    1W        W45173   3.624   6.977   8.575 -0.4475  0.1701  0.2947
    1W        W45174  10.401  24.180   0.191  0.0277  0.2490  0.0304
    1W        W45175  15.633  24.284   0.149  0.1234  0.1194 -0.2800
    1W        W45176   5.099  13.820   8.887  0.0439 -0.1888  0.0133
    1W        W45177   5.717   3.374   7.778 -0.2263 -0.0743 -0.2040
    1W        W45178  12.315   7.371   2.531  0.0229  0.0257 -0.3305
    1W        W45179  13.786   1.526   8.412 -0.2960  0.0158 -0.0907
    1W        W45180  11.068   8.160   7.278 -0.6504 -0.0860  0.0012
    1W        W45181  17.356  18.938   1.641 -0.1879 -0.2415 -0.0481
    1W        W45182  12.465   6.838   8.111  0.2220  0.3379  0.2666
    1W        W45183  25.621  20.979   8.923  0.3404  0.1459 -0.0082
    1W        W45184  28.304   0.136   1.563 -0.1424 -0.3225  0.0241
    1W        W45185   1.782   7.473   1.907  0.0641 -0.2342  0.0828
    1W        W45186  17.492   9.240   8.510  0.1034 -0.1412 -0.2291
    1W        W45187  12.004  10.275   7.858 -0.0293  0.0634  0.3587
    1W        W45188  25.553  29.832   1.354  0.3800  0.0090  0.2158
    1W        W45189   3.985  14.537   1.763  0.1029  0.0070  0.0707
    1W        W45190   6.993   7.854   0.931 -0.1769 -0.0093 -0.2481
    1W        W45191  15.452   1.164   2.684  0.0897  0.2475  0.2561
    1W        W45192  28.389  23.469   7.948 -0.4327  0.0287  0.0077
    1W        W45193  24.386  13.618   1.826 -0.0678 -0.0602 -0.0910
    1W        W45194  10.487  28.025   0.760  0.4337 -0.1699 -0.2375
    1W        W45195   0.747  20.119   5.210  0.1234  0.0688  0.0801
    1W        W45196  13.935  24.746   6.746  0.0482 -0.2423 -0.1377
    1W        W45197  28.768  17.393   0.015 -0.1367 -0.4223  0.1804
    1W        W45198  26.223  12.968   5.500  0.0275  0.0855  0.1550
    1W        W45199  25.060  19.469   1.220 -0.1380  0.0436 -0.0540
    1W        W45200  11.623  26.512   6.833 -0.1782 -0.1409 -0.0020
    1W        W45201  26.412   8.346   8.487  0.2185 -0.1010  0.3192
    1W        W45202  29.148  15.642   9.317 -0.2491 -0.3768  0.1605
    1W        W45203  17.319   2.277   3.057  0.3187 -0.2446 -0.0641
    1W        W45204  23.537  29.977   0.149  0.2736  0.0470 -0.1199
    1W        W45205   5.781   4.829   7.963  0.0273 -0.1603  0.1543
    1W        W45206   9.182  20.705   8.519 -0.0046  0.2922 -0.1945
    1W        W45207   5.208   0.807   9.238  0.1595  0.2497  0.1224
    1W        W45208  30.101  27.618   8.536 -0.1501  0.0897  0.0742
    1W        W45209   9.577  17.273   1.803  0.4784  0.0966  0.4459
    1W        W45210   9.563  12.812   2.560  0.2514 -0.1173  0.2206
    1W        W45211  21.760  21.756   7.513  0.1696 -0.2105  0.1220
    1W        W45212  22.342  25.046   1.635 -0.0897  0.2544  0.0392
    1W        W45213  22.447   6.257   0.152 -0.1267  0.4352 -0.1266
    1W        W45214  20.149   1.559   3.164  0.0236 -0.0719 -0.2594
    1W        W45215  26.606   8.990   1.327 -0.2574 -0.2162 -0.3358
    1W        W45216   7.229  18.636   1.069  0.0924  0.2372  0.2760
    1W        W45217   5.045  27.197   6.790  0.0979 -0.0567 -0.1864
    1W        W45218   0.116   1.652   2.045  0.2289 -0.1343 -0.0209
    1W        W45219  14.872   0.524   1.824 -0.2009  0.2419 -0.0562
    1W        W45220   9.578   7.772   1.027 -0.0751  0.3010  0.0188
    1W        W45221  11.866  27.246   2.349  0.0751  0.1468  0.1758
    1W        W45222   8.625  28.690   2.647  0.1613 -0.1251  0.0829
    1W        W45223   6.645  12.974   1.327 -0.1632 -0.1440  0.0102
    1W        W45224  11.863   1.750   2.953 -0.1542  0.0585  0.2000
    1W        W45225  16.075  25.379   2.606 -0.3028 -0.1097  0.2684
    1W        W45226   7.862  18.643   0.358  0.0379  0.1406  0.2968
    1W        W45227   6.234  14.410   2.454  0.0076  0.0917  0.0085
    1W        W45228  29.993   0.666   8.500  0.3656  0.1781 -0.0298
    1W        W45229  10.246  23.946   7.853 -0.0923 -0.1083  0.0304
    1W        W45230   6.037  18.625   6.351  0.2339 -0.1496  0.2704
    1W        W45231  28.805  28.244   6.562 -0.1062  0.1155 -0.1744
    1W        W45232   4.625   4.484   2.585 -0.0406 -0.4380 -0.0479
    1W        W45233  20.856   7.941   7.698  0.0776  0.0410 -0.0164
    1W        W45234  16.886  25.747   8.406  0.1433  0.2354  0.0884
    1W        W45235  29.111  24.028   5.767  0.1639 -0.2428  0.2620
    1W        W45236  26.747  20.709   0.845 -0.3485  0.3667 -0.1029
    1W        W45237   5.426   2.738   8.664 -0.1928  0.0206  0.1242
    1W        W45238  14.273  27.483   7.036  0.0987  0.1557  0.0866
    1W        W45239  15.170  17.953   7.565  0.1271  0.0749  0.1404
    1W        W45240   1.973   7.816   6.528 -0.0520 -0.2013 -0.0142
    1W        W45241   6.986   5.972   1.546 -0.1911  0.3431  0.0091
    1W        W45242  15.408   2.022   8.817  0.0263 -0.1996  0.1303
    1W        W45243  26.620   0.685   1.357  0.0520 -0.0871 -0.1590
    1W        W45244  29.428  10.858   6.823 -0.0790 -0.2212 -0.3823
    1W        W45245  16.420  29.149   3.237 -0.2156 -0.2219 -0.2553
    1W        W45246   7.904   8.124   2.465 -0.0443 -0.3031  0.4926
    1W        W45247   0.948  20.055   5.706  0.1186  0.4124  0.0655
    1W        W45248   0.071   2.342   1.365  0.0347  0.0774 -0.4163
    1W        W45249  19.334  26.217   1.942 -0.0369 -0.1790  0.3196
    1W        W45250  24.804  28.839   2.172  0.2237 -0.0437 -0.0477
    1W        W45251   8.102  25.716   9.176 -0.0442  0.1445 -0.2035
    1W        W45252  22.721  17.607   7.929  0.0043  0.1612 -0.4312
    1W        W45253   4.366  12.872   0.751  0.3712 -0.0543 -0.0450
    1W        W45254  28.164   3.134   1.406 -0.1175  0.1058  0.0411
    1W        W45255  18.342   2.802   8.993 -0.0130  0.1760 -0.1335
    1W        W45256   6.977   6.054   2.539 -0.2925  0.1623 -0.4143
    1W        W45257  13.118   2.058   8.682  0.2921  0.1300 -0.0280
    1W        W45258   2.338  14.371   6.932 -0.3584 -0.1540 -0.1192
    1W        W45259   5.839  18.355   8.502 -0.0186  0.1951  0.2611
    1W        W45260  30.063  25.256   7.199 -0.3345  0.1008  0.0136
    1W        W45261  25.029  16.718   7.933  0.0735 -0.0322 -0.0336
    1W        W45262  12.150  20.333   1.675 -0.2293 -0.1200 -0.0288
    1W        W45263  29.759  14.801   0.629 -0.1685  0.0318 -0.1061
    1W        W45264  21.637   6.678   7.680 -0.0044 -0.0475 -0.0435
    1W        W45265  19.608  20.330   1.360  0.0463  0.0190  0.1275
    1W        W45266  19.480  25.102   8.242 -0.0093  0.1179 -0.0306
    1W        W45267  26.900  20.883   8.359  0.0747 -0.1019 -0.2099
    1W        W45268  20.614  19.976   0.633 -0.1562 -0.0440  0.3705
    1W        W45269  12.468  26.999   0.685  0.1027 -0.1098 -0.1658
    1W        W45270  28.888   5.447   2.502 -0.0995 -0.2313  0.1811
    1W        W45271  24.287  10.145   7.180 -0.0981  0.0018 -0.2173
    1W        W45272   5.848  26.592   0.533  0.1136 -0.1953 -0.3868
    1W        W45273  12.642  10.724   8.247 -0.2654  0.0429 -0.2095
    1W        W45274   3.628   0.111   0.026 -0.3438 -0.0935  0.1630
    1W        W45275   4.664  11.478   0.561 -0.3864  0.2482 -0.2317
    1W        W45276   8.469  22.193   1.100  0.0731  0.2706  0.0083
    1W        W45277   7.134   6.048   9.250 -0.2787 -0.0163 -0.0969
    1W        W45278   1.906   7.343   6.266 -0.2358 -0.4292 -0.0240
    1W        W45279  27.134  11.669   6.478 -0.1606 -0.3523  0.0667
    1W        W45280  25.228  19.943   6.653 -0.2198 -0.0183  0.0084
    1W        W45281   7.151  14.391   8.622 -0.1973 -0.0095 -0.1168
    1W        W45282  11.946  16.876   8.066 -0.1491 -0.0692  0.0984
    1W        W45283  14.995   0.369   2.884 -0.0549 -0.1995 -0.0214
    1W        W45284   0.817   4.887   8.768 -0.1521  0.0219  0.3933
    1W        W45285   1.629  24.167   6.993  0.2132  0.1390 -0.0151
    1W        W45286   8.429  25.938   0.148 -0.2658 -0.0939 -0.1125
    1W        W45287  11.949  16.898   7.174 -0.0587 -0.1134 -0.1232
    1W        W45288   9.031  18.979   1.338  0.0658  0.0430  0.3092
    1W        W45289  18.246  27.736   1.656  0.3455  0.2746  0.0064
    1W        W45290  23.349  25.739   7.771  0.0547  0.0981 -0.3106
    1W        W45291   0.612  24.766   0.911  0.1232 -0.0973  0.1348
    1W        W45292  21.121   7.973   7.041 -0.1311 -0.2228  0.2188
    1W        W45293  29.466   5.909   0.585 -0.0256 -0.0630  0.0482
    1W        W45294  13.162  22.698   5.996 -0.0032 -0.0414 -0.0021
    1W        W45295  17.637  23.786   7.450 -0.0227 -0.0698  0.1501
    1W        W45296  23.577   3.571   2.102  0.1808  0.0149  0.0597
    1W        W45297  25.064  21.773   9.296  0.0646  0.0729 -0.2237
    1W        W45298  25.235  28.785   1.904  0.2370 -0.2231  0.2644
    1W        W45299   2.117  10.414   6.388 -0.0928 -0.0185  0.2987
    1W        W45300   9.284   6.805   0.765  0.1162  0.0956 -0.1494
    1W        W45301  21.415  29.553   1.439 -0.4933  0.3625  0.0203
    1W        W45302  28.779  13.907   5.167 -0.2314 -0.1132  0.2926
    1W        W45303   4.680  17.302   0.796  0.0597 -0.0746 -0.1073
    1W        W45304  11.429  24.139   1.618  0.1284 -0.1353  0.1390
    1W        W45305  27.884   0.730   6.183 -0.3404  0.0250 -0.0895
    1W        W45306  27.403  27.280   7.191  0.1672  0.1575  0.2796
    1W        W45307   5.760  26.888   6.679 -0.1563 -0.2255 -0.0853
    1W        W45308  27.675   7.532   1.095  0.1459 -0.2316  0.3678
    1W        W45309  28.442  24.677   2.376  0.1344 -0.1021  0.0843
    1W        W45310  24.989  27.938   8.794  0.2390  0.0726 -0.0763
    1W        W45311  25.218  19.937   1.552  0.0372 -0.2568  0.2119
    1W        W45312   3.614   0.960   1.152 -0.0072  0.2267 -0.0176
    1W        W45313  14.485  23.827   0.924 -0.1990 -0.2225  0.2215
    1W        W45314   9.648  13.676   1.171 -0.0755  0.0386 -0.3363
    1W        W45315  26.552  19.722   1.012  0.0311 -0.1642 -0.1132
    1W        W45316  22.526   2.644   9.360  0.0754  0.0570 -0.0984
    1W        W45317  12.845  26.683   2.002 -0.0623  0.0663 -0.0459
    1W        W45318  20.860  15.690   1.520 -0.0893 -0.1131  0.4436
    1W        W45319  12.479  11.063   1.563  0.3086  0.1737  0.2872
    1W        W45320  18.425  25.919   0.834 -0.1304 -0.0332  0.3351
    1W        W45321  19.984   8.513   7.378  0.4301  0.2567  0.2480
    1W        W45322   9.537   8.770   7.822 -0.1805 -0.1985 -0.0559
    1W        W45323   2.800   1.414   6.921 -0.0040  0.1192  0.1643
    1W        W45324   6.393  21.229   0.367  0.1114  0.3240 -0.3509
    1W        W45325   5.688  22.783   5.633 -0.1371 -0.2532  0.1749
    1W        W45326  28.283  21.931   9.051 -0.1079 -0.2719 -0.1052
    1W        W45327  27.950  10.163   8.409 -0.2509  0.1074 -0.0723
    1W        W45328  26.050  16.181   7.314  0.0910  0.1400  0.0670
    1W        W45329   4.797  12.422   1.949  0.0032  0.2146 -0.1263
    1W        W45330  16.678  15.848   0.387 -0.0577  0.0469 -0.0343
    1W        W45331  11.462  28.887   1.782 -0.1087 -0.0622 -0.0843
    1W        W45332  18.790  28.666   2.915  0.1266  0.1191  0.1035
    1W        W45333  16.364  21.805   1.294 -0.3714 -0.0261  0.1424
    1W        W45334  17.211   4.059   0.419  0.0188  0.0375 -0.0424
    1W        W45335   3.600   1.797   2.221 -0.2199 -0.1878  0.2641
    1W        W45336  16.912  29.139   9.332 -0.0721  0.2115 -0.3607
    1W        W45337  27.908   0.306   9.401  0.2892  0.2821  0.2387
    1W        W45338   7.381   3.861   2.014 -0.1064 -0.2137  0.2726
    1W        W45339   2.363   3.148   0.424  0.0586  0.0735  0.0358
    1W        W45340  11.435   8.076   9.275  0.0372 -0.1762  0.1919
    1W        W45341   5.930  18.407   1.444  0.1893 -0.1962  0.1072
    1W        W45342  14.386   0.272   8.007 -0.1467  0.0181 -0.2422
    1W        W45343  26.430  27.331   1.789  0.0845 -0.0694  0.6877
    1W        W45344   3.791  25.583   9.204 -0.1277 -0.4049 -0.0178
    1W        W45345  19.816  28.471   1.463 -0.3468 -0.2589 -0.0855
    1W        W45346  21.583  28.768   1.148  0.0029 -0.1359 -0.1653
    1W        W45347  21.408  27.426   0.835 -0.1175 -0.1903  0.2205
    1W        W45348   0.783   9.946   1.650 -0.1981 -0.6027  0.0222
    1W        W45349  11.721  27.124   7.207  0.2609  0.2564 -0.1074
    1W        W45350   5.813   1.611   7.004 -0.2056  0.0056 -0.0096
    1W        W45351  29.433  19.191   6.802 -0.2986 -0.3089  0.0298
    1W        W45352  25.233  24.271   9.090  0.1213 -0.1404 -0.0156
    1W        W45353  22.810  20.930   7.882 -0.0161  0.1686 -0.1435
    1W        W45354   4.332  21.043   8.188  0.1403 -0.0399 -0.2170
    1W        W45355  18.778  23.630   1.662  0.1389  0.1950 -0.0514
    1W        W45356  12.790   3.241   6.996 -0.2113 -0.1478 -0.1315
    1W        W45357  20.782  18.111   0.682 -0.0414  0.1691 -0.3010
    1W        W45358   6.433  22.409   8.994 -0.2440  0.1408 -0.0310
    1W        W45359  11.194  24.295   6.015  0.2294 -0.1323  0.0660
    1W        W45360  17.179  14.620   0.605  0.0606  0.0031 -0.2450
    1W        W45361   1.709  17.426   8.059  0.1095  0.0520 -0.0363
    1W        W45362   4.827   7.452   9.265 -0.0348  0.1831 -0.2597
    1W        W45363  16.745  10.781   2.670  0.3919  0.0672 -0.1147
    1W        W45364  20.672  27.612   6.914 -0.2730 -0.1074  0.2346
    1W        W45365   2.295   2.962   2.871  0.2097  0.1090  0.1338
    1W        W45366   4.308  13.526   0.849  0.0560  0.2664  0.1366
    1W        W45367  15.851  11.385   9.065  0.2290  0.1361 -0.1081
    1W        W45368  29.370  24.948   2.192  0.0419  0.1666 -0.2267
    1W        W45369  15.198   9.347   0.624  0.1810 -0.1423  0.1839
    1W        W45370   6.540   0.150   8.301  0.3160  0.2335 -0.3193
    1W        W45371   5.299   0.248   2.804  0.3067  0.1059  0.0483
    1W        W45372  21.380  13.678   6.255  0.0070  0.1217  0.0517
    1W        W45373  21.923   4.129   8.992 -0.0585  0.0814  0.1674
    1W        W45374   0.081  19.718   1.192  0.1735  0.1285 -0.0601
    1W        W45375  26.785   6.708   1.989 -0.2633  0.1893 -0.0307
    1W        W45376  18.143  26.558   7.514  0.0334 -0.1387 -0.1396
    1W        W45377   1.896  14.892   7.978  0.0238 -0.2376 -0.2100
    1W        W45378  21.474  23.363   6.748  0.0395 -0.1690  0.1181
    1W        W45379   6.736   9.747   2.476  0.0746  0.0986 -0.1785
    1W        W45380  15.703   5.970   3.171 -0.1685  0.0523 -0.1077
    1W        W45381   7.597  25.354   7.440 -0.1548  0.0075 -0.1189
    1W        W45382   7.612   5.790   8.162 -0.0781  0.1838  0.1081
    1W        W45383   1.069  16.490   0.439  0.0716 -0.0877 -0.0308
    1W        W45384   8.033   3.174   2.709 -0.2206 -0.0241  0.0593
    1W        W45385  28.337  28.340   7.260 -0.1187 -0.2043 -0.2825
    1W        W45386  14.046  24.623   7.211 -0.2626  0.2647 -0.2622
    1W        W45387  21.608   5.069   0.725  0.1894  0.2599 -0.0400
    1W        W45388  27.060  26.974   6.053 -0.0312  0.1888  0.1900
    1W        W45389  26.012   2.246   0.041 -0.2249 -0.0188  0.0405
    1W        W45390  13.187  27.399   1.775  0.0718  0.1609  0.0897
    1W        W45391   1.967  10.897   6.317  0.0585 -0.1184 -0.3480
    1W        W45392  20.014  23.533   1.164 -0.1144  0.2934  0.0390
    1W        W45393  12.484   2.404   3.956 -0.2311  0.0653 -0.0389
    1W        W45394   1.935  13.622   6.613  0.2418 -0.2434 -0.3019
    1W        W45395   0.781  27.902   8.098 -0.1649 -0.0899  0.1059
    1W        W45396  27.717  21.435   6.469 -0.0903 -0.1767 -0.0519
    1W        W45397   7.112  23.400   7.440  0.1200  0.1938 -0.1288
    1W        W45398   9.748  20.380   0.125 -0.3891 -0.0795  0.0199
    1W        W45399  26.159  11.963   7.501 -0.2881  0.2121 -0.0711
    1W        W45400  28.566   9.015   6.481 -0.1361  0.3440 -0.1635
    1W        W45401  19.010  24.000   7.792  0.1161  0.0075  0.1731
    1W        W45402  25.457  14.758   8.431 -0.0963  0.3622 -0.4337
    1W        W45403  13.307  27.149   7.243  0.1946 -0.0805 -0.0070
    1W        W45404  29.514  26.683   7.200  0.0417 -0.2461 -0.3046
    1W        W45405  15.430   3.592   7.342 -0.0440  0.1892  0.1229
    1W        W45406  29.025  26.996   8.871 -0.3668  0.1704 -0.0204
    1W        W45407   8.180  16.625   7.287  0.2405 -0.1792 -0.0632
    1W        W45408   3.035   3.183   6.370 -0.0466 -0.0646  0.0972
    1W        W45409  12.350  26.314   2.037  0.0625 -0.0236  0.2035
    1W        W45410   3.447  29.747   8.013 -0.2668  0.1676  0.0504
    1W        W45411   9.687   9.570   0.428 -0.2904 -0.4351 -0.0388
    1W        W45412  13.067  18.542   9.402  0.1178 -0.3367 -0.0226
    1W        W45413   6.216  19.955   5.428  0.1015  0.4339  0.0787
    1W        W45414  13.832   4.644   8.447 -0.2360  0.1160  0.2324
    1W        W45415   8.141   9.118   8.616 -0.0811 -0.3080  0.2578
    1W        W45416   8.330  27.951   7.942 -0.0523  0.1608  0.1068
    1W        W45417   0.935  15.738   6.225  0.0290  0.1616  0.2484
    1W        W45418  25.206   8.502   0.202 -0.2357 -0.1746  0.1207
    1W        W45419   4.149  16.334   7.923 -0.0960  0.1584  0.0947
    1W        W45420  19.063  13.090   1.970  0.0200  0.3020 -0.1214
    1W        W45421   4.664  23.672   7.793 -0.0596 -0.1301 -0.4726
    1W        W45422   2.459  17.189   6.810  0.0200  0.0585  0.4015
    1W        W45423  25.849   0.375   2.383  0.2950  0.3710 -0.0795
    1W        W45424  20.116  27.955   1.377  0.2573 -0.0153  0.2555
    1W        W45425  12.064  11.827   0.373  0.0421  0.4683 -0.3180
    1W        W45426   4.145  30.016   2.636  0.1074  0.1673 -0.0127
    1W        W45427  24.319   0.313   7.217  0.0265  0.2803  0.0029
    1W        W45428  22.856   0.296   9.045  0.0194  0.0406 -0.0139
    1W        W45429  13.491   4.537   8.802 -0.1578 -0.0999  0.1041
    1W        W45430  17.163  27.467   7.189  0.2000 -0.1574 -0.1210
    1W        W45431  18.344   7.050   9.027 -0.0118  0.0280  0.0555
    1W        W45432  28.008   1.610   7.757  0.0028  0.2343 -0.0798
    1W        W45433  17.326  14.587   7.983 -0.2316  0.2641 -0.0650
    1W        W45434  28.158  10.051   7.277 -0.2145 -0.1485  0.0294
    1W        W45435  21.686   0.914   7.643  0.3034 -0.0782  0.0869
    1W        W45436   7.406   2.824   0.092  0.0645 -0.3772  0.3059
    1W        W45437   6.419  16.464   7.974 -0.4481  0.0017  0.1149
    1W        W45438  13.626  16.491   1.910  0.1833  0.1160 -0.1450
    1W        W45439   9.389   0.851   7.109 -0.0218  0.1364  0.2595
    1W        W45440   1.041  12.253   7.334 -0.0018  0.0605  0.0710
    1W        W45441  20.434  25.098   2.004 -0.1840  0.4891 -0.0082
    1W        W45442   4.015   0.478   7.226 -0.2019  0.0673  0.4665
    1W        W45443   7.940   1.721   3.001 -0.0940  0.2609 -0.0928
    1W        W45444  27.837  13.581   7.054 -0.2082 -0.2160 -0.0924
    1W        W45445   8.353   4.769   1.047  0.1704 -0.4519 -0.2293
    1W        W45446   2.878  17.035   6.546  0.5796 -0.1701 -0.0193
    1W        W45447   8.178  14.465   2.072  0.1287  0.0979 -0.2973
    1W        W45448   9.161  27.212   7.042  0.1057  0.0402  0.2788
    1W        W45449  29.146   1.198   7.216  0.2360 -0.0374 -0.0748
    1W        W45450   6.363   2.563   7.770  0.3070  0.2696 -0.0191
    1W        W45451  15.305  14.025   8.459  0.0107  0.0134 -0.1748
    1W        W45452  18.258  21.143   0.377 -0.1069 -0.0418 -0.1059
    1W        W45453   6.719   8.259   0.184  0.0778  0.0832  0.0807
    1W        W45454  19.217   2.684   0.271 -0.1683 -0.0417 -0.1111
    1W        W45455  17.083  20.595   9.250  0.0946 -0.1005 -0.2777
    1W        W45456   5.638   4.449   7.421  0.1856 -0.0890 -0.2522
    1W        W45457  11.545  19.559   9.222  0.1538 -0.0856  0.1221
    1W        W45458  23.796   4.698   0.471  0.2656  0.0429  0.1382
    1W        W45459  16.385  26.682   0.263  0.1393  0.3897 -0.0445
    1W        W45460  18.096   5.963   9.223  0.1091  0.3433 -0.0095
    1W        W45461  23.570  14.367   8.297 -0.1756 -0.1113  0.1734
    1W        W45462  23.913  27.053   1.040  0.1824 -0.0607 -0.0475
    1W        W45463  15.250  29.684   8.170  0.0241  0.0975  0.2487
    1W        W45464  27.908  21.014   7.739 -0.3663 -0.0666  0.1975
    1W        W45465  25.161  29.220   7.181 -0.2899 -0.2477 -0.4103
    1W        W45466  26.538  24.059   8.480 -0.0052 -0.0905 -0.1788
    1W        W45467   3.914  16.824   5.333  0.2864  0.0875  0.1952
    1W        W45468   2.459  24.153   6.527 -0.0688 -0.1253  0.1745
    1W        W45469  23.955  22.601   9.213  0.0490  0.3093 -0.1332
    1W        W45470  20.530  14.931   8.869  0.2151  0.2554  0.3949
    1W        W45471  23.658  23.943   2.044 -0.3067 -0.3068  0.1314
    1W        W45472  19.388  18.010   1.329 -0.0713  0.1639 -0.0985
    1W        W45473   3.572   4.350   0.732 -0.0498 -0.0711 -0.1298
    1W        W45474  16.987  25.123   1.307 -0.2320 -0.2330 -0.1141
    1W        W45475  20.996  17.038   6.689 -0.2732  0.0368 -0.0873
    1W        W45476  16.448  25.732   1.742 -0.1106 -0.2388  0.0704
    1W        W45477  29.173  23.136   7.245 -0.0063  0.1172  0.0897
    1W        W45478   0.772  14.997   1.589  0.3615  0.1887 -0.1875
    1W        W45479   3.214  24.992   7.784  0.1045 -0.2805  0.1005
    1W        W45480  26.176   2.534   0.445 -0.0740 -0.0665 -0.1826
    1W        W45481   9.641   9.292   2.006 -0.0931  0.1250  0.0184
    1W        W45482  20.701  25.787   6.003  0.0340 -0.1891  0.1389
    1W        W45483  23.998  10.360   1.880 -0.1588  0.0628 -0.1672
    1W        W45484   8.010  17.061   7.490  0.1304  0.1511 -0.0373
    1W        W45485   2.972  22.872   8.717  0.0911 -0.0994  0.1287
    1W        W45486  11.279  29.498   2.975  0.1947  0.1661 -0.2277
    1W        W45487   7.445  11.084   1.532 -0.1021  0.0672 -0.2429
    1W        W45488  24.082   9.326   1.277  0.0771  0.2076 -0.0262
    1W        W45489   1.267  20.370   0.953  0.2770  0.1548  0.1494
    1W        W45490  14.072  16.414   1.724 -0.2850 -0.0391  0.1534
    1W        W45491  12.891   8.024   9.212  0.0750  0.0991 -0.1411
    1W        W45492  10.302   6.986   7.119  0.1328  0.2110 -0.1687
    1W        W45493  20.199  24.298   7.186  0.0324 -0.0850 -0.3597
    1W        W45494  14.481   3.484   1.526  0.2308 -0.1000  0.1011
    1W        W45495  13.633  16.422   7.681 -0.2115  0.1109 -0.1616
    1W        W45496  28.495  28.642   9.251 -0.0799 -0.3035 -0.2265
    1W        W45497  23.665  12.578   6.790  0.1478  0.0680 -0.3301
    1W        W45498  13.932   7.798   0.720 -0.0716 -0.2326  0.0763
    1W        W45499  15.694   6.737   2.535 -0.0725  0.0309  0.0050
    1W        W45500  10.958  20.253   6.939 -0.1425 -0.1685 -0.0565
    1W        W45501  22.941  20.301   7.822 -0.0921  0.1797  0.2021
    1W        W45502  15.719  15.277   9.099 -0.0443 -0.1673  0.0348
    1W        W45503  18.158  19.204   8.955 -0.3684 -0.1551 -0.2909
    1W        W45504  13.044  10.502   0.187  0.1207  0.1626 -0.2333
    1W        W45505  16.035   5.962   0.886  0.4338  0.3346 -0.1023
    1W        W45506   8.192  29.608   8.134  0.2831  0.0945 -0.1865
    1W        W45507  10.019  27.471   7.469  0.2027  0.0392  0.2545
    1W        W45508  27.985  24.263   7.601 -0.2939 -0.0180  0.1497
    1W        W45509  24.073   9.707   0.201 -0.1564  0.0198 -0.1471
    1W        W45510   5.655  12.911   2.816 -0.3366 -0.1405  0.1482
    1W        W45511   2.187  15.454   5.625  0.0824  0.1833 -0.1896
    1W        W45512   3.582  27.979   1.184  0.0235  0.0593  0.0813
    1W        W45513  18.372   1.771   2.963 -0.0809 -0.0007  0.3284
    1W        W45514  15.732  19.235   0.138  0.0263 -0.1134  0.1313
    1W        W45515  24.927  12.835   7.326  0.3475  0.3694 -0.2168
    1W        W45516   1.050  22.128   8.502  0.2461 -0.1787 -0.2752
    1W        W45517  29.606  20.957   9.244 -0.1520 -0.0552  0.2588
    1W        W45518   5.987  13.163   8.268  0.4065  0.0675  0.1627
    1W        W45519   1.892  21.319   6.282 -0.1163  0.0100  0.1533
    1W        W45520  18.461   6.421   2.626 -0.2983 -0.1009  0.2619
    1W        W45521  12.422  12.625   0.843  0.1707  0.2252  0.2718
    1W        W45522   3.970   9.675   7.758  0.2637  0.0292 -0.0715
    1W        W45523  12.815   8.479   0.163  0.1997  0.0274 -0.0703
    1W        W45524   0.658  12.223   2.691 -0.0240 -0.1342 -0.0075
    1W        W45525  29.372   3.102   2.211 -0.0943  0.0333 -0.1548
    1W        W45526  23.243  12.160   6.065 -0.3071 -0.0501  0.0773
    1W        W45527  13.677   0.175   2.334  0.4456 -0.2922  0.0064
    1W        W45528  16.968   1.516   7.401 -0.0725 -0.0696 -0.1583
    1W        W45529  22.094   7.788   1.903  0.0496 -0.3179  0.0795
    1W        W45530   9.677  28.840   0.666 -0.0013  0.0683 -0.1326
    1W        W45531  26.819  14.627   5.762 -0.1357  0.1118 -0.1978
    1W        W45532  22.787  13.987   9.353 -0.1596  0.2796 -0.3128
    1W        W45533   1.520  29.129   0.313  0.4242 -0.1015  0.1095
    1W        W45534   0.850   2.339   2.766 -0.1608  0.1371 -0.2723
    1W        W45535   4.289   1.398   3.289 -0.1792  0.1641  0.2879
    1W        W45536  21.088  12.240   1.014 -0.2627 -0.2188  0.0674
    1W        W45537  23.038  13.813   1.092  0.0261 -0.1425 -0.2533
    1W        W45538  14.666  15.930   7.264 -0.0190 -0.3308  0.2382
    1W        W45539  18.040  29.783   3.177 -0.2828 -0.3194 -0.0345
    1W        W45540  11.274  17.405   1.926  0.1635 -0.1486  0.0242
    1W        W45541   0.573  21.878   1.318 -0.1803  0.2491  0.3288
    1W        W45542   4.553  23.412   1.423 -0.1333  0.1097 -0.3202
    1W        W45543   0.349  14.671   8.459 -0.1236  0.1206 -0.2221
    1W        W45544  16.508   3.724   0.292 -0.0620  0.0179 -0.1397
    1W        W45545   6.867  28.302   1.439 -0.0156 -0.1254 -0.1460
    1W        W45546  23.455  19.184   8.423  0.0445 -0.1241 -0.3289
    1W        W45547  28.540   0.510   1.104  0.0129 -0.5449 -0.0524
    1W        W45548   2.467  11.326   7.577 -0.4971 -0.5887  0.1700
    1W        W45549  24.244  25.548   1.119  0.1432  0.0180 -0.0406
    1W        W45550  21.794  29.635   6.184 -0.1099 -0.0907 -0.0313
    1W        W45551   5.625  12.759   0.951 -0.1937 -0.0715 -0.1947
    1W        W45552  13.842  27.311   8.702 -0.2210 -0.3759 -0.1452
    1W        W45553  14.285   3.946   0.732 -0.1357 -0.0108  0.0465
    1W        W45554  27.555  26.533   7.661  0.0508 -0.0784  0.1829
    1W        W45555  22.358   0.158   1.212  0.0002  0.0257  0.3071
    1W        W45556  27.828  20.697   1.567  0.0314  0.1027  0.0580
    1W        W45557  29.970  15.302   0.469  0.1623 -0.3584  0.0712
    1W        W45558  22.168  23.268   8.133 -0.0442 -0.1218 -0.0659
    1W        W45559   2.904  14.203   6.778  0.0944  0.0229 -0.0162
    1W        W45560  20.720  19.572   7.778  0.1343  0.1619 -0.1598
    1W        W45561  25.039   5.262   8.746 -0.3360 -0.0531 -0.0276
    1W        W45562  12.868  11.623   2.189 -0.3693  0.0043 -0.0002
    1W        W45563   8.884  26.468   6.434  0.3319  0.0581 -0.3730
    1W        W45564  28.130   4.507   6.694  0.0079 -0.0108  0.3043
    1W        W45565  10.616  18.858   0.894  0.1587  0.0907 -0.1734
    1W        W45566   8.783  16.223   1.559  0.0175  0.0356 -0.1628
    1W        W45567  14.624   2.764   1.975  0.0601  0.1207  0.0062
    1W        W45568  24.256  22.279   7.825 -0.1025 -0.2541  0.0974
    1W        W45569  21.165   5.311   2.341  0.1384 -0.1706 -0.0577
    1W        W45570  26.848  20.615   1.840 -0.0509  0.0672 -0.0999
    1W        W45571  20.316   3.232   0.510 -0.2614  0.0203  0.0333
    1W        W45572  10.599  24.686   8.889 -0.0203  0.1180 -0.1916
    1W        W45573  27.504   5.886   9.190 -0.2009  0.4623 -0.0160
    1W        W45574  19.314   7.910   7.914 -0.1146 -0.1727 -0.1293
    1W        W45575   4.646  26.157   0.081  0.0180 -0.1326 -0.0606
    1W        W45576  16.902  26.732   8.085 -0.0498 -0.2112 -0.2138
    1W        W45577  22.951  20.114   8.874  0.1814  0.1166 -0.3854
    1W        W45578  18.562   9.324   1.561 -0.1294 -0.1200 -0.0739
    1W        W45579   9.526  20.737   8.021  0.3612  0.0742  0.0119
    1W        W45580   7.304  26.573   2.308 -0.1354  0.1640  0.1234
    1W        W45581  27.861  24.691   7.259  0.2233  0.2003  0.1403
    1W        W45582  24.616  12.740   2.033  0.0629 -0.3639  0.0655
    1W        W45583  13.463  16.793   1.069  0.2118  0.1888 -0.0997
    1W        W45584  14.256   9.905   3.028 -0.0709 -0.2833 -0.0396
    1W        W45585  22.121  17.613   6.904 -0.2186  0.0248 -0.1591
    1W        W45586  26.404  13.184   5.944 -0.1808  0.1042 -0.0635
    1W        W45587   1.811  26.046   1.351 -0.2935  0.0584 -0.0612
    1W        W45588  10.845  29.926   8.074 -0.1947 -0.0928  0.2622
    1W        W45589  12.022  24.256   9.344 -0.3256  0.0768 -0.0536
    1W        W45590  16.395  25.711   7.794 -0.1739  0.2119 -0.0027
    1W        W45591  18.137   7.561   8.814  0.0752  0.2047 -0.1752
    1W        W45592   6.157  20.871   6.586  0.0059 -0.2348  0.0308
    1W        W45593   7.224   4.610   2.474  0.2084 -0.1635  0.2635
    1W        W45594   8.311  25.917   6.229 -0.1915  0.1578  0.0208
    1W        W45595  20.366  21.131   1.308 -0.1215  0.2545 -0.0316
    1W        W45596   1.805   9.476   6.268  0.0622 -0.1436 -0.0145
    1W        W45597  28.059  20.701   8.041  0.0620  0.2845 -0.0255
    1W        W45598   7.355  28.209   1.116  0.0561  0.1450 -0.0862
    1W        W45599  24.179  24.264   0.182  0.2522 -0.1029  0.1562
    1W        W45600  18.738  11.015   7.191 -0.1204 -0.2646 -0.1512
    1W        W45601  25.015  20.680   5.618 -0.1234 -0.1267  0.1167
    1W        W45602   8.042  11.315   7.282  0.1916 -0.1543  0.0226
    1W        W45603  23.427  20.658   8.519  0.2406  0.2811 -0.1353
    1W        W45604  11.655   3.535   9.149 -0.1678 -0.2305  0.1758
    1W        W45605  19.135  17.946   7.662  0.0791 -0.0672 -0.0557
    1W        W45606  10.783  14.864   2.212 -0.1531  0.4613  0.2544
    1W        W45607  21.411   4.018   7.725  0.1123 -0.1012 -0.0838
    1W        W45608   7.762   8.066   1.448 -0.6664 -0.2759 -0.0038
    1W        W45609  11.645  24.002   8.553 -0.0815  0.1719  0.1217
    1W        W45610   9.768  20.469   7.184  0.2975 -0.0230 -0.2013
    1W        W45611  16.054   5.429   0.813  0.1882  0.0316  0.2202
    1W        W45612   2.010   7.829   1.594  0.0864  0.1366 -0.1346
    1W        W45613  28.891   5.123   7.311  0.0020 -0.0254 -0.2444
    1W        W45614  17.263  25.390   7.694  0.2005 -0.0595 -0.1267
    1W        W45615  30.047   0.074   8.413 -0.1464  0.2236  0.1766
    1W        W45616   4.964   4.599   9.311  0.1770 -0.0104  0.2191
    1W        W45617   5.083  21.306   0.941  0.3314 -0.2370  0.1703
    1W        W45618  18.418  13.984   9.149 -0.1327 -0.0871 -0.1794
    1W        W45619   6.907  23.681   7.038 -0.1550 -0.1517 -0.0405
    1W        W45620   1.148  12.713   6.294 -0.0411  0.3311 -0.2989
    1W        W45621  14.403  23.013   7.834 -0.0049 -0.0617  0.0353
    1W        W45622  29.742  12.533   6.080 -0.4065 -0.2369  0.1318
    1W        W45623  15.363   8.795   2.172 -0.2557 -0.2927 -0.2596
    1W        W45624  17.032   4.707   2.217 -0.0544 -0.1469  0.0981
    1W        W45625   0.340   0.825   8.799 -0.0495  0.1795 -0.2501
    1W        W45626  23.759  27.672   7.405 -0.0643  0.2242 -0.0115
    1W        W45627  11.452   3.940   7.125  0.3394 -0.1026  0.3130
    1W        W45628   2.601   1.715   2.461 -0.2199 -0.2186  0.0936
    1W        W45629  22.519  19.643   2.112 -0.6033  0.1983  0.4179
    1W        W45630  15.695  17.186   7.518 -0.0234 -0.4822  0.0290
    1W        W45631  15.245  16.706   2.468  0.0258  0.1615  0.3138
    1W        W45632  29.531  13.343   5.020 -0.1043 -0.0205 -0.2173
    1W        W45633  23.828  16.495   1.299 -0.0725 -0.0909  0.2233
    1W        W45634   6.719  10.847   0.974  0.2898  0.1282  0.1222
    1W        W45635   2.454  11.227   6.563  0.0822  0.0978  0.0049
    1W        W45636  13.821  23.168   1.593 -0.0310  0.2188 -0.0641
    1W        W45637  22.713   4.964   1.610  0.0899 -0.3523  0.1936
    1W        W45638   5.784  25.293   7.610 -0.1822 -0.1309 -0.0816
    1W        W45639  26.258  25.381   0.440  0.0490  0.3743  0.0143
    1W        W45640  15.937   2.600   0.475  0.1444 -0.2468 -0.1123
    1W        W45641  21.236  17.370   8.379  0.2308 -0.0757 -0.2386
    1W        W45642  17.126   1.558   0.451 -0.1146 -0.1905 -0.1018
    1W        W45643  28.025  12.980   7.984 -0.1133 -0.0603 -0.1936
    1W        W45644  25.201  24.404   2.926 -0.4654  0.4601 -0.3388
    1W        W45645  12.648  27.458   1.647  0.0309  0.1646 -0.3185
    1W        W45646  18.597   5.636   7.226 -0.1183  0.0560  0.1683
    1W        W45647  20.757   4.424   1.944  0.0096  0.0114  0.1141
    1W        W45648  22.664  23.096   8.221  0.0056  0.1584  0.3199
    1W        W45649  20.548   2.218   7.255 -0.1725  0.2567 -0.3539
    1W        W45650  11.053  11.213   0.597 -0.0048 -0.1758 -0.1750
    1W        W45651  28.450   8.956   1.279 -0.0534 -0.2148 -0.3833
    1W        W45652  14.347  13.702   2.168 -0.2765 -0.2591 -0.2136
    1W        W45653  16.339  26.109   1.463  0.0666  0.2328 -0.0009
    1W        W45654  19.212   6.646   8.517 -0.1939 -0.0686  0.1428
    1W        W45655   1.701  11.147   0.447 -0.0967  0.3496 -0.0003
    1W        W45656   5.834   2.981   3.794 -0.2023  0.1412 -0.0972
    1W        W45657   5.704  14.389   8.699  0.1756  0.3100 -0.0832
    1W        W45658  14.026  12.373   8.273  0.1442 -0.1688 -0.0884
    1W        W45659  23.722  18.735   6.171 -0.1797  0.2188  0.1013
    1W        W45660  24.114   5.905   0.277  0.0655  0.3212  0.3020
    1W        W45661  13.618  22.446   8.059  0.1038 -0.2555 -0.2461
    1W        W45662  28.822   4.573   0.326  0.3279  0.1538 -0.0065
    1W        W45663  15.029  24.989   9.221 -0.0025  0.1008 -0.1429
    1W        W45664  12.824   5.539   8.018  0.2437  0.1298  0.0078
    1W        W45665   6.301   7.936   2.812 -0.1145  0.0547 -0.0536
    1W        W45666  23.703   3.711   0.549 -0.1442 -0.1779  0.1590
    1W        W45667  12.901   8.737   2.498 -0.1376 -0.2131  0.2329
    1W        W45668   9.760   1.653   7.897 -0.0316  0.1879 -0.2065
    1W        W45669  20.121   6.965   2.166  0.1186 -0.1546 -0.3798
    1W        W45670  13.745   6.205   0.098 -0.0530 -0.2538 -0.4140
    1W        W45671  28.787  17.526   6.550 -0.1082  0.3263  0.1855
    1W        W45672  18.497  23.366   8.525 -0.0061 -0.0721  0.2435
    1W        W45673  14.172  15.466   0.213  0.0601  0.0763  0.0720
    1W        W45674   7.453  12.070   7.288 -0.2062  0.1246  0.0315
    1W        W45675   0.129  21.252   6.064  0.0667 -0.0610  0.1288
    1W        W45676   2.341  19.275   6.742 -0.0070 -0.0630  0.3070
    1W        W45677  18.462  20.824   9.371  0.3844  0.1361 -0.3883
    1W        W45678   4.673  24.001   0.897 -0.2529  0.0935 -0.3127
    1W        W45679   3.346  13.510   6.450  0.0520 -0.2238 -0.0582
    1W        W45680   9.218   7.926   8.072  0.1505  0.2389 -0.1641
    1W        W45681  16.772  14.844   9.033 -0.2390  0.0910  0.1075
    1W        W45682  11.283  22.019   0.783  0.2000 -0.3666  0.1569
    1W        W45683   0.344  18.224   9.370  0.1595 -0.0236 -0.0765
    1W        W45684   7.048  21.672   1.470  0.1402  0.1991 -0.2748
    1W        W45685  14.082  22.274   8.502  0.0994  0.1189 -0.3635
    1W        W45686  26.100  18.570   7.915 -0.3856  0.1788  0.0881
    1W        W45687  14.507  21.015   1.699 -0.2529 -0.3360 -0.0751
    1W        W45688  18.740   6.227   8.383 -0.0839 -0.0557 -0.0279
    1W        W45689  18.499  28.340   0.953  0.3417 -0.1471 -0.0712
    1W        W45690  28.081   2.571   2.048 -0.0675 -0.0506 -0.4530
    1W        W45691   6.473   2.945   7.427 -0.3051 -0.2170  0.1031
    1W        W45692  12.685   2.958   2.536 -0.1085  0.0277  0.2428
    1W        W45693  14.626  12.610   0.265  0.0214  0.3041 -0.0345
    1W        W45694   4.443   1.877   3.155  0.2730  0.1736 -0.0099
    1W        W45695   0.497  27.172   0.009 -0.1113  0.1903  0.2364
    1W        W45696  27.409  22.114   0.395  0.1097 -0.1186 -0.0147
    1W        W45697  13.059   5.920   8.369  0.0404 -0.0422  0.6926
    1W        W45698  17.926  22.188   2.841  0.1692  0.1134  0.1310
    1W        W45699  27.601  28.757   0.917 -0.0161  0.4340 -0.0673
    1W        W45700   5.568  29.519   7.372 -0.1455 -0.2427  0.0705
    1W        W45701   8.859  28.225   9.361 -0.1825  0.1121  0.1212
    1W        W45702   7.434  24.356   7.907 -0.0632  0.2687 -0.0965
    1W        W45703  18.087  12.214   7.726 -0.2041 -0.1877 -0.0034
    1W        W45704  23.230  26.173   8.990  0.1590  0.2155  0.1333
    1W        W45705  18.369  14.898   2.095 -0.0682 -0.0489  0.0093
    1W        W45706  21.388  10.828   8.771 -0.1358 -0.0185  0.0546
    1W        W45707  16.366   1.985   8.228  0.0693 -0.1513 -0.1375
    1W        W45708   5.318  18.910   0.363  0.0459  0.0026 -0.2121
    1W        W45709  24.001  16.258   7.562 -0.1252 -0.0001  0.1771
    1W        W45710  18.383  21.944   1.458  0.1805 -0.4475  0.1108
    1W        W45711  19.727  24.396   1.899  0.1528 -0.3539  0.2147
    1W        W45712  21.588   1.480   8.867 -0.0266  0.0093  0.0035
    1W        W45713  26.687  22.955   6.630  0.0112 -0.2149  0.3896
    1W        W45714  28.742  20.333   7.424  0.0408  0.0387 -0.2537
    1W        W45715  20.664  25.162   6.817  0.1806  0.1168  0.1293
    1W        W45716   2.049  20.833   1.374  0.1670  0.3070  0.1595
    1W        W45717  11.279   7.762   8.869 -0.1717 -0.3667  0.1206
    1W        W45718  15.698   3.185   7.027  0.3439  0.2184 -0.0555
    1W        W45719  29.429   1.202   2.149  0.2476  0.1656 -0.0827
    1W        W45720  27.503  29.191   2.558  0.1298 -0.1949 -0.1215
    1W        W45721  24.583  23.549   7.052 -0.1462  0.0012  0.0646
    1W        W45722  18.145  10.495   6.685  0.1480 -0.0973  0.0903
    1W        W45723   0.265   5.701   8.279  0.0767 -0.0755 -0.1058
    1W        W45724  23.724  16.548   7.861 -0.0832 -0.0848  0.0436
    1W        W45725  22.134   7.031   0.786 -0.0202  0.2181  0.2309
    1W        W45726  14.681  29.215   7.885 -0.1423  0.3520 -0.1332
    1W        W45727  21.829  18.974   2.081  0.2663 -0.0473  0.4019
    1W        W45728  15.879  29.849   0.064  0.0904 -0.0007 -0.0197
    1W        W45729  12.907  25.661   2.774  0.0796 -0.0907  0.1893
    1W        W45730   5.673  16.992   1.679 -0.2140  0.1445 -0.0908
    1W        W45731  11.692  22.741   7.509  0.2225 -0.1314  0.2499
    1W        W45732   7.863  17.462   1.761  0.1568  0.1356  0.0540
    1W        W45733  21.455  22.727   6.697  0.0866 -0.1258  0.2537
    1W        W45734  21.078  15.477   7.113  0.1988  0.2777 -0.0254
    1W        W45735   7.618   6.893   8.962 -0.0828  0.0078  0.1644
    1W        W45736   2.072  27.102   7.190  0.2998 -0.0584 -0.1629
    1W        W45737   4.014  13.445   7.929 -0.0352 -0.2658 -0.1717
    1W        W45738  23.522  20.163   1.305  0.0070 -0.2497  0.0880
    1W        W45739  19.351  17.373   8.556 -0.0016 -0.0351 -0.0733
    1W        W45740   4.034  16.680   6.388  0.0628  0.2030  0.0487
    1W        W45741  30.073  25.797   0.366 -0.2809 -0.0702  0.2246
    1W        W45742  19.608   8.211   0.487 -0.1026 -0.2381 -0.3639
    1W        W45743  10.712  10.728   8.332  0.3085 -0.3582  0.3685
    1W        W45744  17.072  12.346   7.283 -0.2351 -0.2389 -0.2515
    1W        W45745  23.670  23.535   1.060  0.1120  0.2701 -0.3714
    1W        W45746   3.257  19.254   9.351  0.0402  0.0024  0.1087
    1W        W45747  11.242  20.610   7.164  0.3132 -0.0481 -0.3309
    1W        W45748  20.372   4.769   7.040 -0.2506 -0.1104 -0.3084
    1W        W45749   6.450  22.804   8.257  0.2771 -0.0859  0.0327
    1W        W45750  20.716   4.465   9.333 -0.1530  0.2556 -0.0598
    1W        W45751  22.979   0.962   0.389  0.0772 -0.2138  0.1095
    1W        W45752   4.037  21.987   6.957 -0.2734  0.0342 -0.2931
    1W        W45753  23.333  15.009   6.590  0.0037  0.0971  0.0086
    1W        W45754  15.472   1.546   8.982 -0.0864  0.0814 -0.0624
    1W        W45755   5.953  16.502   6.592 -0.0276 -0.0078 -0.2603
    1W        W45756  29.157  12.421   0.787  0.0348 -0.2945  0.0556
    1W        W45757  10.115  29.959   8.134 -0.2910 -0.0206  0.0708
    1W        W45758  17.414   4.386   7.489 -0.1147 -0.1601  0.0354
    1W        W45759   5.057   0.442   8.877  0.1148  0.0772 -0.2273
    1W        W45760   4.578   2.391   0.440  0.0185 -0.2418  0.1483
    1W        W45761   7.059   6.638   7.017 -0.3848 -0.2338  0.1204
    1W        W45762  13.260  19.257   8.493  0.0436  0.0828 -0.0532
    1W        W45763  20.943   7.023   8.873  0.1144 -0.1063  0.1421
    1W        W45764   2.665   2.496   0.592  0.1679  0.2152  0.1283
    1W        W45765  26.671  19.409   1.615  0.1991  0.0266 -0.0878
    1W        W45766   1.420  24.953   1.650 -0.1410  0.2376 -0.2685
    1W        W45767  20.226   0.070   2.036  0.2747  0.1818 -0.1259
    1W        W45768   7.076  13.915   7.593 -0.4223 -0.0437 -0.0657
    1W        W45769  11.059   2.099   3.308 -0.0419 -0.0824  0.1938
    1W        W45770  21.623  20.522   7.815 -0.2512  0.1383 -0.1162
    1W        W45771  16.246  17.301   7.352  0.1467  0.1223 -0.3727
    1W        W45772   8.594  10.567   2.231 -0.0117 -0.1443 -0.0807
    1W        W45773  17.918  29.354   1.552 -0.2322 -0.3069  0.3535
    1W        W45774  26.993   5.881   1.326  0.2038  0.0010  0.1630
    1W        W45775  14.453  16.081   0.931 -0.2762 -0.0896  0.0479
    1W        W45776   3.433  15.170   1.064  0.1560 -0.1965  0.0930
    1W        W45777  14.014  27.612   7.831 -0.0802  0.0088  0.1797
    1W        W45778  21.387  10.435   9.087 -0.2676  0.0467  0.0504
    1W        W45779   5.351  11.100   1.456  0.1083 -0.2832 -0.0326
    1W        W45780   7.111  25.734   9.097  0.4340 -0.1161  0.0358
    1W        W45781  22.837  15.413   0.601 -0.1687 -0.1122  0.2358
    1W        W45782  28.524  29.873   8.778 -0.0094 -0.0091  0.3692
    1W        W45783  17.117  15.702   7.414  0.0347  0.2222 -0.2383
    1W        W45784   5.919  16.022   8.722  0.5170  0.0114  0.1290
    1W        W45785   5.768  10.169   7.875  0.0199  0.2172 -0.2376
    1W        W45786  24.501  10.843   1.041 -0.0362  0.0530 -0.1511
    1W        W45787  25.794  17.845   9.353 -0.0422 -0.3696  0.0073
    1W        W45788   1.234  12.748   1.254 -0.0029 -0.1495 -0.1818
    1W        W45789  18.874  21.840   2.578  0.1004  0.2622 -0.1579
    1W        W45790   3.418   5.423   7.285 -0.2022  0.2382  0.0655
    1W        W45791  24.809   4.944   2.504  0.2926 -0.0397  0.0877
    1W        W45792  21.486  12.973   0.707 -0.1030 -0.0902 -0.0010
    1W        W45793  18.202   3.825   7.709  0.1905  0.0746 -0.0668
    1W        W45794  22.971   3.636   9.183  0.1621  0.0699 -0.0518
    1W        W45795   6.020  27.231   6.459 -0.2969  0.1201 -0.1113
    1W        W45796  20.764   8.380   7.122  0.1712 -0.0383 -0.0181
    1W        W45797  24.586  21.392   5.874  0.0740  0.2363  0.2361
    1W        W45798   0.854  28.394   8.701 -0.1774  0.2035  0.1544
    1W        W45799  16.939  28.418   0.249  0.1044 -0.0491  0.0283
    1W        W45800  27.105  14.024   0.426 -0.1276 -0.2658  0.3961
    1W        W45801  28.629   7.163   0.219 -0.2303 -0.3129 -0.1858
    1W        W45802   8.461  24.565   7.933  0.0484 -0.1998  0.0431
    1W        W45803   4.273  19.083   9.187  0.0581 -0.1802  0.2369
    1W        W45804  21.344  15.560   8.593 -0.1329 -0.1543  0.0904
    1W        W45805  11.976   4.341   2.782  0.0523  0.0634  0.0010
    1W        W45806  29.306  16.235   8.385 -0.0704 -0.2000  0.3178
    1W        W45807  28.924  24.690   8.992  0.0830 -0.2008 -0.1622
    1W        W45808   8.298  22.695   1.059  0.0986 -0.0718  0.1697
    1W        W45809  19.231  24.869   0.678  0.2849 -0.0234  0.3272
    1W        W45810  28.527  18.164   6.528  0.0782  0.0303 -0.1148
    1W        W45811  11.102  19.581   2.188 -0.1849  0.1389  0.0644
    1W        W45812   1.664   6.568   1.014 -0.2085 -0.4141  0.1506
    1W        W45813   1.936  29.688   1.086  0.0368  0.2139 -0.0013
    1W        W45814  30.110   7.034   6.416  0.3418 -0.2131  0.2130
    1W        W45815  28.759  26.316   7.154  0.1016  0.1050 -0.0940
    1W        W45816  20.404   0.211   1.138  0.0581 -0.2375 -0.2298
    1W        W45817   7.233  20.088   6.737  0.3006  0.3139  0.2017
    1W        W45818   4.371   6.532   6.879  0.1867 -0.1870  0.3346
    1W        W45819   7.933   6.376   8.217 -0.0821  0.2898  0.3349
    1W        W45820  15.391  29.815   0.119  0.1008  0.0510  0.0220
    1W        W45821  11.653  25.314   1.057 -0.0934  0.2584  0.0012
    1W        W45822   0.046  10.803   5.651 -0.0579  0.0112 -0.0112
    1W        W45823  23.125  30.131   0.518 -0.0069  0.0704  0.2379
    1W        W45824  17.423  26.654   8.436 -0.0262  0.0882 -0.4045
    1W        W45825   9.544  28.236   1.268 -0.0021  0.0094  0.1571
    1W        W45826  24.249   9.675   7.468 -0.1078  0.1975  0.1122
    1W        W45827  15.224   2.383   1.920 -0.1301 -0.0567 -0.1138
    1W        W45828  25.383  13.852   0.791 -0.2756 -0.0890  0.0133
    1W        W45829   0.142  24.725   8.985 -0.1703 -0.0551 -0.0074
    1W        W45830   5.265  12.580   2.128  0.0744 -0.1899  0.1162
    1W        W45831   2.104  25.402   2.638 -0.2359 -0.0696  0.2188
    1W        W45832  20.255  22.362   6.413  0.3522 -0.1213 -0.0891
    1W        W45833   9.885  10.300   1.878 -0.1165  0.1572  0.0485
    1W        W45834  15.312  18.465   8.846 -0.2222 -0.0443  0.2238
    1W        W45835  27.352  11.196   6.341  0.2695  0.2719 -0.0399
    1W        W45836  17.594  13.852   7.178  0.3193  0.1672 -0.3021
    1W        W45837  28.137   9.458   0.105 -0.2181  0.1384  0.0268
    1W        W45838   0.114   4.329   0.750 -0.0221  0.2629  0.1368
    1W        W45839   5.031  29.737   3.576  0.3890 -0.2154 -0.2024
    1W        W45840  10.707  28.192   2.756 -0.2347  0.1268  0.1490
    1W        W45841  12.715  27.490   8.655  0.2023 -0.0490  0.0490
    1W        W45842  29.852   9.786   0.372 -0.0562  0.0178  0.0265
    1W        W45843  10.224  20.746   7.093 -0.1029 -0.1233  0.0302
    1W        W45844  25.088  25.688   8.058 -0.1663  0.0648 -0.2428
    1W        W45845   7.666   4.687   0.199 -0.0180  0.1031  0.0836
    1W        W45846  26.248  29.669   0.138  0.4205  0.3022  0.1875
    1W        W45847  26.804  20.268   1.113 -0.0728  0.0660  0.0716
    1W        W45848  27.838  13.736   1.620  0.3217 -0.2592  0.0713
    1W        W45849  17.890  12.473   8.939 -0.4295 -0.0752  0.0999
    1W        W45850   6.738   8.763   0.215 -0.0570 -0.1123  0.1585
    1W        W45851  28.312  20.751   6.713 -0.0464 -0.0445  0.0544
    1W        W45852   4.557  29.275   8.880  0.2162  0.0138  0.2619
    1W        W45853  11.169   4.194   9.370  0.2807  0.0261 -0.2791
    1W        W45854  13.665  28.974   0.282 -0.1037 -0.0523 -0.1852
    1W        W45855  26.940   6.699   0.075  0.4570  0.0814 -0.1526
    1W        W45856  12.130   6.874   9.002 -0.0325 -0.1880  0.1181
    1W        W45857  25.989  27.163   1.408 -0.1091  0.3631  0.0287
    1W        W45858  12.676   8.675   8.049  0.1443  0.2132 -0.0874
    1W        W45859   7.551  27.686   1.467  0.1047  0.2400 -0.0728
    1W        W45860  18.613  29.366   1.118 -0.1145 -0.0798 -0.2973
    1W        W45861   2.648  18.436   6.398 -0.2669 -0.2427 -0.1568
    1W        W45862   7.793  28.216   6.461 -0.0042 -0.1877 -0.1174
    1W        W45863   7.972   7.436   7.647 -0.0600 -0.0494  0.0709
    1W        W45864  28.325   4.523   2.353 -0.3595  0.0627  0.0573
    1W        W45865   4.730   5.710   9.266  0.1649  0.2692 -0.2034
    1W        W45866  13.746   2.993   1.554 -0.3164  0.3257  0.2890
    1W        W45867  26.285  27.655   0.161 -0.2579 -0.1273  0.0427
    1W        W45868  15.242  26.776   2.600  0.0932 -0.2337  0.0411
    1W        W45869  28.890  16.828   5.836 -0.0788 -0.1882  0.1281
    1W        W45870  16.592  12.679   8.477 -0.1264  0.4868  0.2935
    1W        W45871  20.750   2.162   0.930  0.1617  0.3302  0.0282
    1W        W45872   9.765  28.056   1.721  0.2456  0.0083  0.1748
    1W        W45873   9.895   6.138   8.243  0.1502  0.1834 -0.0087
    1W        W45874   6.530   1.345   8.435 -0.3480  0.2912 -0.0833
    1W        W45875  24.208  15.016   0.285 -0.1020  0.1646  0.1406
    1W        W45876  17.246  28.211   8.631 -0.2822 -0.2167  0.3216
    1W        W45877  26.255   9.080   6.172 -0.2690  0.0583  0.1115
    1W        W45878   9.681  15.425   7.455 -0.2436  0.1718  0.2185
    1W        W45879   0.011   4.456   9.147  0.3268  0.1102  0.1083
    1W        W45880   5.945  28.771   7.702 -0.0769 -0.0349 -0.1598
    1W        W45881  11.376  23.470   6.522  0.0740 -0.0308 -0.1750
    1W        W45882  26.786   2.017   9.068  0.1785 -0.4828  0.2250
    1W        W45883  19.641   5.765   2.563 -0.0036  0.1176 -0.2538
    1W        W45884   5.613  27.138   8.660  0.1994  0.1503  0.2624
    1W        W45885  10.374  17.905   1.054 -0.0411 -0.0443  0.0807
    1W        W45886   6.479  26.403   7.211  0.2724  0.0864  0.1276
    1W        W45887  18.748  12.276   0.381  0.0062  0.0325 -0.1092
    1W        W45888  20.021  20.590   7.264 -0.0055 -0.2596 -0.1089
    1W        W45889   7.293  27.283   8.859  0.2159 -0.2062 -0.1198
    1W        W45890  15.464  22.140   2.049  0.0296  0.0486 -0.0301
    1W        W45891  27.047   1.497   1.484 -0.0156  0.1234 -0.1506
    1W        W45892  10.296  14.860   1.980 -0.1223 -0.2564 -0.0108
    1W        W45893  24.064  23.068   8.323 -0.0529  0.1506  0.1421
    1W        W45894  18.549  24.734   1.579  0.2990  0.1385  0.1638
    1W        W45895  14.603  23.645   2.340 -0.0271  0.0431  0.3773
    1W        W45896   4.618   5.457   7.416 -0.0597  0.0814  0.0659
    1W        W45897   4.007  13.658   6.444  0.3409  0.0637  0.0906
    1W        W45898   1.371  23.001   7.949 -0.1988 -0.0053 -0.3427
    1W        W45899  29.098   8.699   5.626  0.1348  0.2016  0.2578
    1W        W45900   7.491  12.282   8.745  0.2372 -0.0145 -0.0281
    1W        W45901  17.393   2.142   8.844  0.0044 -0.2746  0.0561
    1W        W45902   6.728  14.064   0.282 -0.1055  0.2153 -0.1580
    1W        W45903  13.174  26.328   0.794 -0.1571 -0.0525  0.1377
    1W        W45904  20.509  23.839   7.583  0.0723  0.0667  0.3278
    1W        W45905  11.637   2.120   7.479 -0.0265 -0.1137  0.2761
    1W        W45906  28.008   1.602   2.962  0.0662 -0.3342 -0.1738
    1W        W45907   4.005   2.382   9.246 -0.1936  0.3413  0.0641
    1W        W45908   7.748   1.609   7.420  0.0178  0.1323  0.1993
    1W        W45909  26.882  24.995   1.507  0.3259 -0.0908  0.0409
    1W        W45910   5.103  12.201   8.097  0.0707  0.1216 -0.3740
    1W        W45911   7.044  25.349   0.007  0.0517  0.3990  0.1094
    1W        W45912  27.007  22.643   2.367 -0.4381 -0.1478 -0.1634
    1W        W45913   2.193   9.317   0.776 -0.1573  0.1294  0.3412
    1W        W45914  10.534  14.491   1.721 -0.0020 -0.1606 -0.0350
    1W        W45915  12.806  12.576   1.238  0.1305 -0.0161 -0.0948
    1W        W45916   6.954   1.412   1.664  0.1388  0.0648 -0.1415
    1W        W45917  22.078  27.117   2.232  0.2254 -0.2266  0.2729
    1W        W45918  29.392  17.670   5.788  0.0268 -0.1278  0.0315
    1W        W45919  28.037  15.663   7.198 -0.0944 -0.2115  0.0642
    1W        W45920   1.354  27.150   7.300  0.2490  0.1347 -0.0287
    1W        W45921   6.396  18.385   5.984 -0.0062 -0.0143 -0.0050
    1W        W45922  21.021   7.422   2.835  0.3203  0.3352 -0.1212
    1W        W45923   4.491  20.278   0.656  0.3262 -0.2704  0.0309
    1W        W45924  16.763   8.787   8.575  0.0317 -0.1893  0.0820
    1W        W45925   3.576  29.167   8.757 -0.1294  0.1300 -0.1141
    1W        W45926  25.666  23.584   7.634  0.0255 -0.0811  0.0442
    1W        W45927  22.379   9.691   8.511  0.3551  0.0137 -0.0124
    1W        W45928  19.602   7.654   8.256 -0.0598 -0.2520 -0.0478
    1W        W45929   4.190  21.224   5.234 -0.0891  0.2231  0.0507
    1W        W45930   0.179  19.669   7.776 -0.0854 -0.3050 -0.0285
    1W        W45931  16.703  15.749   8.339  0.1534 -0.0670  0.1615
    1W        W45932  21.089   8.276   0.045  0.1572 -0.0237 -0.0107
    1W        W45933  16.706  25.205   9.378 -0.1546  0.0123  0.4733
    1W        W45934  23.054  25.516   0.971 -0.0787 -0.3109  0.1625
    1W        W45935  21.344  13.973   9.156 -0.1310 -0.2084 -0.0790
    1W        W45936   9.902  20.700   0.863  0.0755  0.2386 -0.2288
    1W        W45937  16.792  26.951   7.648  0.0099  0.2058 -0.0997
    1W        W45938   5.215   2.403   2.576 -0.1747  0.0964  0.0325
    1W        W45939   7.061  24.590   2.022 -0.0268  0.1793 -0.0056
    1W        W45940   6.369  29.501   0.290  0.0400  0.0077 -0.0942
    1W        W45941   2.719  16.848   9.395  0.0595 -0.0493  0.4879
    1W        W45942  17.570   8.032   9.105 -0.3327 -0.0574 -0.0035
    1W        W45943  10.289   9.477   2.426 -0.0478 -0.2161 -0.2151
    1W        W45944  22.124  11.567   8.030 -0.0816  0.0353 -0.0122
    1W        W45945  28.662  27.274   8.958  0.0125  0.0821 -0.2450
    1W        W45946  17.438   6.585   8.181  0.1344  0.1108 -0.2189
    1W        W45947  27.400  18.700   9.285  0.1400  0.0337  0.0762
    1W        W45948  15.831  28.154   2.285  0.2199  0.3581  0.0439
    1W        W45949   0.683  19.492   7.829  0.2203  0.0815  0.1893
    1W        W45950  20.271   1.161   8.781 -0.0240  0.1224 -0.1852
    1W        W45951  19.200  28.177   0.327 -0.1833 -0.0495 -0.1969
    1W        W45952  26.425   3.916   8.824  0.1478 -0.0344 -0.0032
    1W        W45953   2.455  12.659   0.339 -0.1195  0.2087 -0.3509
    1W        W45954  13.034  28.426   7.347  0.3100 -0.1902  0.0641
    1W        W45955   9.523  25.007   9.257  0.1790 -0.3156  0.0087
    1W        W45956   5.126  22.271   8.808  0.1807 -0.1484  0.1157
    1W        W45957  11.589  29.077   0.458 -0.0482  0.1067  0.1715
    1W        W45958  24.097   1.516   8.843  0.2660 -0.0919 -0.4280
    1W        W45959   1.011  17.070   5.605 -0.1051 -0.0796 -0.1301
    1W        W45960  20.799   0.583   8.227  0.3539 -0.3094  0.1896
    1W        W45961   2.064  13.188   2.454 -0.0239  0.0702 -0.1696
    1W        W45962   4.223  12.285   0.068 -0.2605 -0.3732 -0.0818
    1W        W45963  29.166  14.983   0.656  0.1443  0.0337  0.0133
    1W        W45964   1.319  25.488   7.187  0.3659  0.2096 -0.2322
    1W        W45965  27.847   8.043   5.904  0.1105  0.0368  0.1241
    1W        W45966  11.859   5.856   8.779  0.0695  0.1399  0.3495
    1W        W45967  10.480  15.662   7.775  0.0681 -0.0178 -0.1199
    1W        W45968  10.493   5.075   3.050  0.3212  0.1450 -0.0027
    1W        W45969  13.787  19.694   8.874 -0.0965  0.3646  0.1116
    1W        W45970  21.399   8.669   0.167 -0.0321  0.1029  0.1038
    1W        W45971   1.206  21.924   6.928  0.2655  0.2380  0.2685
    1W        W45972  17.652  21.855   9.348  0.0743  0.0297  0.1173
    1W        W45973  17.251  15.308   8.347  0.2495 -0.0876  0.0837
    1W        W45974   3.725   8.141   0.132 -0.1692  0.2671 -0.2101
    1W        W45975  24.387  29.190   6.563 -0.1261  0.0158  0.0412
    1W        W45976  21.293  24.981   1.459  0.0152  0.0411 -0.3370
    1W        W45977  23.306  22.614   1.107  0.0396  0.0720 -0.0350
    1W        W45978  21.759  27.567   7.116 -0.1717 -0.3464  0.0723
    1W        W45979   2.156  28.310   9.070 -0.2087 -0.0547 -0.1740
    1W        W45980  10.840  21.558   6.508  0.2822  0.1247  0.1061
    1W        W45981   5.156  11.358   9.330 -0.0997  0.0430 -0.0599
    1W        W45982   0.625  20.312   7.835  0.1132  0.0088 -0.0300
    1W        W45983   9.404   7.032   7.479  0.2187 -0.0657 -0.0475
    1W        W45984  19.718   3.489   7.144  0.0035 -0.2609  0.0609
    1W        W45985   5.441  26.972   8.082  0.0211  0.3077 -0.2613
    1W        W45986  12.889  12.042   2.583 -0.1322 -0.1953  0.1148
    1W        W45987   2.424  14.079   2.115 -0.2193 -0.1663  0.1642
    1W        W45988   7.510  14.033   1.355  0.1636 -0.0367  0.1654
    1W        W45989  16.656  24.895   7.305 -0.2665  0.1282  0.2129
    1W        W45990  10.802  17.832   8.095  0.1181 -0.1610  0.1139
    1W        W45991  16.424  28.406   2.612  0.1050  0.2404  0.0914
    1W        W45992  14.616   6.673   3.611  0.0718  0.1604  0.3388
    1W        W45993  11.083  13.596   7.718 -0.0080  0.0563  0.1128
    1W        W45994   8.764   6.258   7.256 -0.0636  0.0893  0.0004
    1W        W45995  13.277  15.586   7.466  0.0228  0.2539  0.1670
    1W        W45996  19.286   1.363   8.368  0.2286  0.2275  0.0330
    1W        W45997   9.096  17.157   0.551 -0.1193 -0.1721  0.1036
    1W        W45998   1.102   4.881   2.365  0.1814 -0.1625  0.1162
    1W        W45999  12.163  18.841   7.847 -0.3322 -0.0089  0.0641
    1W        W46000  23.977  25.168   7.603 -0.1695 -0.0412  0.0493
    1W        W46001  13.455  28.858   3.564 -0.2481 -0.0044 -0.0808
    1W        W46002  14.238   1.014   8.638  0.0556 -0.0559  0.0030
    1W        W46003  13.137   4.223   7.587 -0.1235 -0.0612  0.1232
    1W        W46004   5.976   5.850   3.358 -0.2515  0.3686 -0.0293
    1W        W46005   0.491  10.625   8.182  0.0254  0.1203 -0.1433
    1W        W46006   5.407  23.056   1.488  0.1062 -0.0651 -0.0362
    1W        W46007   6.610  15.616   2.128  0.0678 -0.1183  0.2554
    1W        W46008  24.313   6.379   2.714  0.1695  0.1077 -0.0071
    1W        W46009  27.478   4.229   2.712  0.0133  0.0357  0.4581
    1W        W46010   7.038   8.310   0.643  0.1216  0.2287 -0.0594
    1W        W46011   0.451  18.588   6.671  0.1818  0.3989  0.1780
    1W        W46012  15.264  17.582   8.892  0.3129  0.2522 -0.4325
    1W        W46013   1.297  29.137   7.695 -0.2250 -0.1153  0.5987
    1W        W46014  19.348  13.222   8.000 -0.1222 -0.1141  0.0029
    1W        W46015   2.450  16.508   8.488 -0.1554  0.0317  0.0337
    1W        W46016  26.888  15.927   5.793  0.1801  0.3008  0.1651
    1W        W46017  23.062  28.142   1.006  0.0875  0.5735  0.2004
    1W        W46018   7.415   6.882   0.732 -0.0435  0.0818 -0.1804
    1W        W46019  27.031  30.090   8.310  0.0464  0.1327  0.2897
    1W        W46020  11.683   0.953   3.447  0.1655 -0.2302  0.5627
    1W        W46021  11.046  11.615   2.950  0.1220  0.1899  0.0494
    1W        W46022  27.901   6.314   6.136 -0.0645 -0.0675  0.1548
    1W        W46023   8.020   8.578   9.142  0.0026 -0.3317 -0.0708
    1W        W46024   9.507   7.282   2.388  0.1136  0.1938  0.2151
    1W        W46025  26.305  16.573   1.555 -0.1030  0.0076  0.1229
    1W        W46026  13.271   8.423   1.135  0.0274  0.1040 -0.0579
    1W        W46027   5.414   7.179   7.943 -0.0068 -0.0484 -0.3317
    1W        W46028  12.183  16.992   1.796 -0.0557 -0.0260 -0.0252
    1W        W46029  11.433  21.102   9.022  0.1274  0.0185 -0.2229
    1W        W46030   2.157   7.902   7.038 -0.1139 -0.0157 -0.1447
    1W        W46031  18.425   6.566   8.515  0.1399 -0.1273  0.0434
    1W        W46032  17.009  24.695   2.476 -0.0820 -0.1448  0.0543
    1W        W46033  22.218  16.353   1.287 -0.0325 -0.0170 -0.1936
    1W        W46034  12.165  17.490   7.389  0.4453  0.2494 -0.0091
    1W        W46035  28.631   8.536   9.148  0.0983 -0.0897  0.3687
    1W        W46036  11.796   3.629   3.971  0.3232  0.0788  0.0994
    1W        W46037  21.642   1.765   0.400  0.1352 -0.2558 -0.1570
    1W        W46038  23.403  18.471   2.330 -0.2554  0.2433  0.0995
    1W        W46039   9.462   7.253   3.038  0.1306  0.1632  0.2426
    1W        W46040   7.926  27.493   6.995  0.3826  0.0441 -0.0958
    1W        W46041  26.496  25.155   2.672  0.0148 -0.1367  0.0374
    1W        W46042   6.851   4.173   0.507 -0.0345  0.2290  0.2503
    1W        W46043  15.731  14.949   1.257 -0.3609  0.1530 -0.0143
    1W        W46044  18.053  14.657   0.091  0.1558 -0.1571  0.1203
    1W        W46045  23.777   3.823   2.522  0.0754  0.1201  0.1162
    1W        W46046  14.601  23.945   8.254 -0.5919  0.0612 -0.1968
    1W        W46047  26.108   8.619   6.067  0.1926 -0.1639 -0.1122
    1W        W46048  19.561   4.266   0.160 -0.1695  0.2426  0.1075
    1W        W46049  10.267  26.628   0.722 -0.2057 -0.1022  0.1269
    1W        W46050  22.584  26.574   0.458 -0.2455 -0.2646 -0.0299
    1W        W46051  15.699  21.164   1.899 -0.1173 -0.1640 -0.1436
    1W        W46052  10.432   9.624   3.397  0.0875  0.2972 -0.1908
    1W        W46053  17.539  24.768   6.339  0.2132 -0.1762  0.1836
    1W        W46054  25.251   7.953   0.712  0.0113 -0.0091 -0.1904
    1W        W46055  16.426   4.871   1.546 -0.2790 -0.0032  0.1988
    1W        W46056  22.269   5.976   1.561 -0.3096  0.0863 -0.4087
    1W        W46057  25.885   9.310   0.208 -0.1632  0.1441 -0.1518
    1W        W46058  17.975   8.313   0.612  0.0288  0.3400  0.2319
    1W        W46059   1.084  24.765   0.650  0.2847 -0.0182  0.0891
    1W        W46060  24.851  15.905   7.503 -0.0842 -0.1190  0.2780
    1W        W46061  23.653   0.094   8.560  0.2204 -0.4575 -0.1717
    1W        W46062  19.272   6.305   1.322 -0.0161  0.1121  0.1781
    1W        W46063   6.087  24.675   1.884  0.0654  0.1783 -0.1643
    1W        W46064  26.083  24.545   0.633  0.2123 -0.0111 -0.0057
    1W        W46065  22.944  24.060   6.234  0.0999  0.0356  0.1163
    1W        W46066  14.086   0.094   7.582  0.1836  0.2151 -0.4654
    1W        W46067  19.332  26.819   2.719 -0.0227 -0.1075 -0.5100
    1W        W46068  27.517   2.059   0.304  0.1293 -0.0898  0.2770
    1W        W46069  16.664  26.408   0.581  0.3341  0.1435  0.0712
    1W        W46070   7.305  20.594   7.208  0.0044  0.2857 -0.1599
    1W        W46071  24.633   1.174   0.128 -0.2602 -0.0738  0.1490
    1W        W46072  17.649  21.111   7.531 -0.0216 -0.0764 -0.2018
    1W        W46073   2.891  20.524   9.123 -0.0357 -0.0380  0.0515
    1W        W46074  23.893  15.691   5.962  0.0129 -0.3744 -0.1164
    1W        W46075  16.449  11.195   0.843  0.0098  0.2010  0.1962
    1W        W46076  28.868  23.805   7.916 -0.2594  0.3931  0.1229
    1W        W46077  29.842  10.661   1.691 -0.1644  0.0475  0.0835
    1W        W46078  28.621  11.118   6.765  0.1812  0.0405  0.2863
    1W        W46079  13.166  28.887   1.409 -0.1640  0.0405  0.1991
    1W        W46080  26.733  29.603   8.045  0.0739 -0.0118  0.2625
    1W        W46081  12.480   6.942   2.671  0.0821  0.1892  0.3086
    1W        W46082   8.928   2.065   2.659  0.0676 -0.2454 -0.1167
    1W        W46083   0.270  18.780   1.092  0.3205 -0.1483  0.1920
    1W        W46084  28.619  20.556   5.836 -0.1794 -0.0157 -0.1360
    1W        W46085  21.681  24.361   1.181  0.3507 -0.2210 -0.3444
    1W        W46086  16.432   2.691   0.591 -0.0388  0.1022 -0.0645
    1W        W46087  16.068  11.302   7.966 -0.0252  0.1388 -0.1673
    1W        W46088  10.448   9.613   8.030 -0.0811 -0.2397  0.0645
    1W        W46089  16.616   3.742   7.904 -0.0887  0.0363  0.0136
    1W        W46090  28.514  21.979   1.646 -0.2459 -0.2245 -0.0603
    1W        W46091   9.170   5.592   0.430  0.0200 -0.1098 -0.0081
    1W        W46092   7.229   2.014   7.861  0.1386  0.4007  0.0590
    1W        W46093   7.558  25.621   9.278 -0.0387  0.1776 -0.0175
    1W        W46094  23.277   4.970   0.416  0.4060  0.0785 -0.0195
    1W        W46095  29.862  28.371   2.182  0.1441  0.0398  0.2654
    1W        W46096  21.490  22.187   2.974  0.1734 -0.0138  0.3665
    1W        W46097  11.580  25.548   1.982 -0.1331  0.2552 -0.2743
    1W        W46098   3.369   2.601   2.599  0.0999  0.2025 -0.0704
    1W        W46099   2.214  13.144   7.592 -0.1128 -0.3678  0.0114
    1W        W46100   3.489  30.097   7.414  0.1165  0.0200 -0.2236
    1W        W46101  29.849  17.106   9.068  0.1606  0.0270  0.0244
    1W        W46102  26.266  27.473   8.324 -0.0654 -0.2088  0.0971
    1W        W46103  17.504  22.689   8.616  0.0556 -0.0721  0.2077
    1W        W46104   3.982   3.617   9.034 -0.0215 -0.1475 -0.1040
    1W        W46105   5.026   6.510   7.349 -0.3685 -0.1038 -0.0650
    1W        W46106  18.748  16.293   8.180 -0.2265 -0.1362 -0.2391
    1W        W46107  28.835  12.348   7.971 -0.1714  0.1379 -0.0601
    1W        W46108  24.724  27.064   0.475  0.2372  0.1767 -0.2074
    1W        W46109   7.214  12.939   7.553 -0.0143 -0.2299 -0.2574
    1W        W46110   4.431  12.789   1.898  0.3663 -0.0270 -0.0285
    1W        W46111   0.794  11.115   6.832  0.4504  0.2176 -0.0799
    1W        W46112   4.497  27.188   7.940 -0.2123  0.2753  0.2750
    1W        W46113   7.043  24.473   8.340 -0.3500 -0.2083 -0.3383
    1W        W46114  24.245  27.515   8.291  0.1848  0.0767  0.1574
    1W        W46115   1.446   1.103   1.495 -0.0132 -0.4904 -0.0416
    1W        W46116   5.397  24.943   5.999  0.0101 -0.1235  0.0896
    1W        W46117  15.962  22.256   0.244  0.3486  0.0385 -0.1337
    1W        W46118  20.206  21.529   2.525  0.2286 -0.1299 -0.2974
    1W        W46119   5.453   9.045   8.333 -0.4753 -0.0706 -0.0052
    1W        W46120  21.538   9.572   8.095 -0.0337  0.3600  0.3004
    1W        W46121  22.601  13.998   5.915 -0.1909  0.0750 -0.2011
    1W        W46122  24.739  23.439   8.536  0.3253  0.2659 -0.1077
    1W        W46123  22.830   4.883   8.990  0.0664 -0.2687  0.0399
    1W        W46124   9.744  26.740   0.765  0.1355  0.1457 -0.0610
    1W        W46125  25.011  24.705   2.559 -0.1446 -0.0280 -0.4455
    1W        W46126   4.000  11.879   6.991  0.0269 -0.0235  0.0911
    1W        W46127  19.909  15.598   7.319 -0.2470 -0.0215  0.3144
    1W        W46128  16.266  27.596   7.524  0.0007 -0.0765  0.2835
    1W        W46129   8.390  21.309   1.865 -0.2233  0.0671 -0.2195
    1W        W46130   9.317  22.398   8.938 -0.0608  0.1545 -0.1074
    1W        W46131  25.075   2.242   7.220  0.1607  0.1523  0.0986
    1W        W46132   3.928   7.470   7.897  0.0092  0.1937  0.0426
    1W        W46133  30.154   8.272   7.050 -0.3137 -0.0732 -0.1170
    1W        W46134  23.561  13.215   1.560 -0.0252  0.2516  0.0121
    1W        W46135   2.312  16.981   5.917 -0.2603  0.0234  0.0109
    1W        W46136   4.449   2.590   2.107  0.1846 -0.0306 -0.4122
    1W        W46137   0.081  12.002   2.131 -0.1216 -0.0709 -0.1110
    1W        W46138  27.757  26.375   1.891 -0.1665  0.0842  0.1150
    1W        W46139   1.262  13.862   1.038 -0.2752 -0.0039  0.3529
    1W        W46140  17.872  19.463   1.023 -0.4452  0.0003 -0.1681
    1W        W46141  19.340  17.766   0.408  0.2266  0.0954 -0.0698
    1W        W46142  15.936   1.361   2.722  0.2421  0.0418 -0.2555
    1W        W46143   8.703  10.757   1.167  0.2348 -0.1197  0.2705
    1W        W46144  19.773  30.065   8.432 -0.1290 -0.4478  0.0066
    1W        W46145   9.419   5.674   7.331  0.0444 -0.0389  0.1245
    1W        W46146  28.687  15.325   1.192 -0.1066  0.0442  0.0162
    1W        W46147  28.013  29.952   6.128 -0.1136  0.0581 -0.1370
    1W        W46148  18.238  11.803   8.081  0.0765 -0.2122 -0.0381
    1W        W46149  19.329   8.032   2.199 -0.0015  0.2027 -0.1480
    1W        W46150   6.444  23.547   7.015  0.1018 -0.2000 -0.0202
    1W        W46151  14.899   4.106   2.220 -0.0975 -0.1856 -0.1875
    1W        W46152  16.723   3.951   1.810  0.0835 -0.0770 -0.1862
    1W        W46153  17.555   9.424   2.090  0.1113  0.1105  0.2292
    1W        W46154   7.576  13.037   9.166 -0.1391  0.1190 -0.0523
    1W        W46155   0.666  24.935   8.964 -0.3522  0.0012  0.1339
    1W        W46156  11.907   5.137   0.023  0.2195 -0.2661  0.1472
    1W        W46157  23.103  17.454   8.364  0.2246  0.2544  0.2906
    1W        W46158  13.859  17.633   0.839  0.1011  0.2116 -0.1776
    1W        W46159   2.688  22.092   7.951 -0.1112 -0.0744 -0.2392
    1W        W46160  12.888   1.858   7.269 -0.0028 -0.2334  0.0211
    1W        W46161  14.286  25.473   8.338  0.2947  0.2249  0.0599
    1W        W46162  20.560  24.200   2.904 -0.0454  0.1271  0.1166
    1W        W46163  14.639  13.114   9.255 -0.1488 -0.0434 -0.2955
    1W        W46164  28.617   9.414   1.537  0.0294 -0.2443 -0.1160
    1W        W46165   6.331   1.238   2.981 -0.2975 -0.2834 -0.1607
    1W        W46166  28.554   4.740   0.826  0.0896 -0.5262  0.0274
    1W        W46167  25.568   2.021   8.166 -0.1947 -0.1507  0.0694
    1W        W46168   5.955  13.386   2.954 -0.2127 -0.1584 -0.0263
    1W        W46169  17.941  20.811   2.022 -0.1742  0.0517 -0.0778
    1W        W46170   3.996   2.976   2.008 -0.3422  0.1372  0.2435
    1W        W46171  25.900   7.245   7.050 -0.0367 -0.2947  0.1921
    1W        W46172  24.717   8.652   0.386 -0.0330  0.1753 -0.0173
    1W        W46173  17.943  18.424   1.279  0.1991 -0.0791 -0.0735
    1W        W46174   8.282   4.128   9.138  0.1607 -0.0909 -0.0727
    1W        W46175  27.033  22.738   8.122  0.0119 -0.1673  0.1343
    1W        W46176  28.135  27.797   8.364 -0.0477  0.1772  0.0858
    1W        W46177   9.268  19.449   8.371 -0.2536 -0.2022 -0.2629
    1W        W46178  15.446  28.417   8.314 -0.1197  0.1420 -0.0061
    1W        W46179  23.605  20.649   1.195 -0.1769  0.1636  0.0258
    1W        W46180   5.569  25.357   6.884  0.2454  0.2305 -0.0498
    1W        W46181   7.505  15.994   8.829  0.1613  0.0783  0.0233
    1W        W46182  19.226  27.452   8.384  0.0575 -0.0801  0.0326
    1W        W46183  28.732   4.960   6.767  0.1095  0.0131  0.1500
    1W        W46184   6.240  11.673   8.482  0.1155 -0.2660  0.0479
    1W        W46185  23.308  26.568   0.080 -0.0590  0.1002  0.1365
    1W        W46186   6.566   6.679   2.155 -0.0538  0.0143 -0.0208
    1W        W46187  13.738  25.814   7.756  0.1786 -0.1265 -0.0454
    1W        W46188  25.311   5.017   0.359  0.0931  0.1528  0.0175
    1W        W46189  15.329  29.643   7.184 -0.1303  0.0370  0.0032
    1W        W46190  27.619  25.026   8.617  0.0872  0.0617 -0.3385
    1W        W46191  12.239   5.473   7.721  0.1868  0.2279  0.1051
    1W        W46192  17.693  28.228   7.476 -0.0206  0.3167  0.0154
    1W        W46193   4.905  14.186   2.090 -0.0338 -0.1314  0.2676
    1W        W46194  22.816   7.813   7.670 -0.1593  0.1263  0.1275
    1W        W46195  23.392   4.114   0.625  0.2119 -0.0563  0.2007
    1W        W46196  13.652  19.342   7.336  0.0276 -0.1085 -0.1843
    1W        W46197   7.116   5.042   2.787  0.0401 -0.2617  0.0015
    1W        W46198   0.268  20.337   8.179  0.2914 -0.1716  0.2023
    1W        W46199  17.612  14.296   1.390  0.0591  0.0198 -0.1991
    1W        W46200  22.744   2.449   7.046 -0.2543 -0.2267 -0.1565
    1W        W46201  11.137  25.373   1.957  0.1929 -0.1393 -0.1221
    1W        W46202  16.095   3.461   0.321 -0.0132 -0.0036 -0.0459
    1W        W46203  23.653  11.822   9.268  0.0879  0.0221 -0.0138
    1W        W46204   3.835  20.019   8.575  0.3116  0.0017  0.2005
    1W        W46205  15.945  17.163   8.534  0.0763 -0.1336 -0.3214
    1W        W46206  16.064  24.321   0.408  0.3478 -0.2460  0.2208
    1W        W46207  27.141   1.326   6.888  0.2734 -0.0266  0.0909
    1W        W46208   4.291  27.793   1.969 -0.2729 -0.1643  0.1127
    1W        W46209   2.017  12.601   0.609 -0.2140 -0.2835 -0.1724
    1W        W46210  10.083  23.816   1.891 -0.2135  0.2857  0.1297
    1W        W46211  10.896  18.884   1.715  0.2114 -0.0866  0.1528
    1W        W46212  24.435  10.862   5.955 -0.2208 -0.4382 -0.2319
    1W        W46213  10.982  10.445   1.680 -0.4184  0.4002  0.0406
    1W        W46214  20.756  26.780   1.477  0.0818 -0.0488 -0.0616
    1W        W46215  23.971   8.935   6.289 -0.2533  0.2281 -0.0289
    1W        W46216  22.520   6.151   8.581  0.2343  0.0840 -0.1980
    1W        W46217   9.618  16.400   1.034 -0.0961 -0.1241  0.0246
    1W        W46218  28.564   2.506   2.173 -0.0195  0.1729  0.0999
    1W        W46219  18.904  12.920   6.785 -0.3394 -0.1542 -0.0469
    1W        W46220   8.547   7.318   9.307  0.2761  0.1903 -0.1382
    1W        W46221  16.315  28.729   2.182  0.2922 -0.0720  0.0122
    1W        W46222  15.733  18.947   0.622 -0.3057  0.1981 -0.1245
    1W        W46223  19.038  29.669   2.714  0.2591 -0.5346  0.0579
    1W        W46224   8.477   9.829   8.021 -0.1589  0.0818 -0.0612
    1W        W46225  17.856   5.831   8.735 -0.1707 -0.1264 -0.3357
    1W        W46226  23.548   0.865   3.125 -0.0506  0.0761  0.2163
    1W        W46227  16.557  28.359   1.638 -0.5405 -0.1122  0.0208
    1W        W46228  16.132  11.509   0.432  0.1410  0.0054  0.0300
    1W        W46229  26.048   3.224   7.176  0.0092  0.2573 -0.0679
    1W        W46230  17.160   2.221   7.883 -0.1915  0.1986  0.0545
    1W        W46231   9.167  12.347   8.821 -0.1236 -0.0331 -0.0666
    1W        W46232  22.590  21.318   0.641  0.0973  0.1532 -0.0070
    1W        W46233  19.774  19.925   1.042  0.1684  0.3084  0.3051
    1W        W46234  30.101  24.766   7.354 -0.1836 -0.3058 -0.0173
    1W        W46235   4.896   0.448   3.554  0.1342  0.1059  0.1308
    1W        W46236  17.859   3.597   2.878 -0.1209 -0.0025  0.0477
    1W        W46237  16.467  12.048   1.362  0.1808 -0.2182  0.0219
    1W        W46238  11.340  23.447   5.914  0.0186  0.1110  0.1566
    1W        W46239  22.950  20.492   8.563  0.2236 -0.1028 -0.0167
    1W        W46240  25.536  27.597   9.036 -0.0080  0.2564 -0.1466
    1W        W46241  19.836   1.674   2.190  0.0039  0.0439  0.0409
    1W        W46242   1.045  19.860   0.126  0.1657  0.0480  0.0146
    1W        W46243   0.554  22.463   5.703 -0.2945 -0.0899 -0.1179
    1W        W46244  11.878   2.628   2.749  0.1387  0.0827  0.3399
    1W        W46245  10.075   0.699   1.422  0.0165  0.1428  0.3510
    1W        W46246   0.392  16.458   1.037  0.0506 -0.3622  0.1872
    1W        W46247  20.131  26.146   2.345 -0.2806 -0.4198 -0.0038
    1W        W46248  20.740   8.833   8.825  0.0365 -0.0856  0.4265
    1W        W46249  21.237  17.160   1.800  0.1625 -0.2840 -0.1886
    1W        W46250  15.562  13.051   8.646 -0.1021 -0.2757  0.0441
    1W        W46251  21.871  14.884   1.109  0.1989 -0.2163 -0.0371
    1W        W46252   7.671  14.915   2.805 -0.2360  0.0050 -0.1254
    1W        W46253  11.617  15.238   1.855  0.0525 -0.1673 -0.0590
    1W        W46254  28.629  25.851   2.170  0.2647  0.4975 -0.1136
    1W        W46255  16.089  25.651   0.619  0.1162  0.0764  0.0583
    1W        W46256  20.152  27.208   1.994 -0.0821  0.0375 -0.1231
    1W        W46257  23.186   8.793   8.581 -0.3953  0.0423  0.0469
    1W        W46258  23.222   6.410   2.828  0.1218  0.3006  0.1199
    1W        W46259  25.251  18.944   0.107 -0.3270 -0.1811  0.0049
    1W        W46260  21.410   6.070   0.261 -0.2059  0.2305 -0.0619
    1W        W46261  18.076  14.883   0.488 -0.0620 -0.1271  0.0022
    1W        W46262  23.095   1.369   1.379  0.1514 -0.2501 -0.0809
    1W        W46263  29.274  26.685   8.271 -0.0334 -0.0071 -0.1915
    1W        W46264  20.721  20.795   1.661 -0.1315  0.1634 -0.1163
    1W        W46265  10.257   9.804   9.344  0.1349  0.0770  0.1026
    1W        W46266  29.693  15.663   1.793  0.0497  0.0351 -0.0123
    1W        W46267  17.335  15.441   8.924 -0.1143  0.0345  0.0317
    1W        W46268  15.470   3.741   0.171  0.2072 -0.0699 -0.2049
    1W        W46269  29.315  11.922   5.421 -0.1707 -0.1365  0.1070
    1W        W46270  26.842  27.590   1.849 -0.3320 -0.2398 -0.1706
    1W        W46271   3.921  19.504   5.881  0.0243 -0.0189 -0.0347
    1W        W46272  25.230  21.256   8.042  0.0023 -0.2111 -0.0390
    1W        W46273  17.350   1.881   1.296 -0.0660 -0.2710  0.0425
    1W        W46274  25.229   0.806   9.327  0.0087  0.1401  0.2428
    1W        W46275  10.470  11.656   2.508  0.0607  0.0939  0.0309
    1W        W46276  15.932  24.456   0.895 -0.0463  0.1265  0.1067
    1W        W46277  21.228   5.000   2.922  0.5608 -0.2325  0.0201
    1W        W46278  24.446  11.117   1.926 -0.0331 -0.2160 -0.0059
    1W        W46279  29.723  22.981   7.226 -0.1456 -0.0063 -0.1804
    1W        W46280   8.764  25.119   1.731  0.0983  0.1849 -0.2037
    1W        W46281   0.276  15.171   1.720 -0.1182  0.1731 -0.0086
    1W        W46282   7.769  14.594   1.271 -0.1965 -0.1771 -0.0571
    1W        W46283  21.978  29.306   9.382  0.1739  0.1193  0.0279
    1W        W46284   3.085  29.891   3.207 -0.0348  0.1281 -0.1480
    1W        W46285  29.911  16.063   0.918 -0.3088  0.0590 -0.0062
    1W        W46286  22.784  29.045   6.462 -0.0402  0.0268 -0.0781
    1W        W46287  22.554  13.689   1.128 -0.0139 -0.0974 -0.2549
    1W        W46288  18.117  29.334   7.394  0.1303  0.1102 -0.4248
    1W        W46289   9.907   5.390   2.842  0.0317  0.1137  0.1995
    1W        W46290   3.644  27.338   1.552  0.2400 -0.3541  0.4435
    1W        W46291  29.419  10.422   1.785 -0.2004  0.0774 -0.0305
    1W        W46292  28.485  10.006   6.528  0.1435  0.0937 -0.1911
    1W        W46293  16.824  22.787   6.832 -0.0946 -0.0299 -0.1166
    1W        W46294  23.378  12.099   8.766  0.1531  0.0729 -0.0149
    1W        W46295  15.810  13.837   8.238 -0.1362  0.3111  0.1247
    1W        W46296  18.775  27.407   8.640  0.1221  0.2733 -0.0798
    1W        W46297   3.382  29.871   1.023  0.3122 -0.0890 -0.1576
    1W        W46298   1.678  20.195   5.634 -0.1835  0.0066 -0.0967
    1W        W46299   7.339   7.958   1.803 -0.1312 -0.1268  0.0247
    1W        W46300  27.486  12.737   0.693  0.0543  0.0756  0.1225
    1W        W46301  10.031   5.041   0.607 -0.2937 -0.7138 -0.0798
    1W        W46302   6.942   8.809   7.705 -0.1043  0.0446  0.0454
    1W        W46303   0.578  28.749   7.825 -0.2769  0.0914  0.2041
    1W        W46304   0.910   9.859   8.673 -0.0385  0.1192  0.0400
    1W        W46305  22.341  28.331   1.130 -0.0274  0.1636  0.1501
    1W        W46306  27.924   4.217   2.269 -0.0297  0.0942 -0.1461
    1W        W46307  25.826  21.912   7.422  0.0448 -0.1119  0.1718
    1W        W46308   5.042  29.410   1.744  0.0842  0.0485  0.0318
    1W        W46309   3.257   5.240   9.291  0.1650  0.3487  0.3542
    1W        W46310  26.247   4.553   0.595 -0.2103  0.2067  0.0209
    1W        W46311  20.675   8.222   0.709 -0.2016  0.0729 -0.3002
    1W        W46312   6.317  22.902   2.196 -0.1422  0.2599 -0.0123
    1W        W46313  22.412  18.967   6.805 -0.0759  0.2270 -0.0673
    1W        W46314   8.870  14.411   0.933 -0.1951 -0.2772 -0.3620
    1W        W46315   3.158  17.256   1.694  0.4702 -0.1197 -0.2070
    1W        W46316  10.744  20.975   6.755 -0.1802  0.1026  0.0030
    1W        W46317  11.810  24.850   1.140  0.2211 -0.1187 -0.2121
    1W        W46318  24.894  12.321   0.257 -0.0492 -0.0220 -0.4607
    1W        W46319  27.193   4.047   0.973 -0.0399  0.1601  0.2905
    1W        W46320   2.330   7.079   8.524 -0.1880  0.1409  0.1766
    1W        W46321   2.951  10.918   9.305  0.2367  0.2667 -0.0446
    1W        W46322  29.541  23.202   7.628  0.3171  0.0844  0.2250
    1W        W46323  15.727   8.390   6.924 -0.1796  0.0384 -0.0314
    1W        W46324  16.907  18.666   1.491  0.1645 -0.0743  0.2798
    1W        W46325  15.024  17.149   1.968  0.0464  0.2530  0.0873
    1W        W46326  13.720   6.887   2.479 -0.1922 -0.2303  0.4176
    1W        W46327   7.679  19.149   1.599 -0.1971 -0.2780 -0.1184
    1W        W46328  29.568  30.140   1.139 -0.0515  0.0830 -0.0662
    1W        W46329   4.026   3.828   1.838  0.2852 -0.2385  0.3905
    1W        W46330  25.442   3.595   0.767 -0.0323  0.1619 -0.0506
    1W        W46331  17.817   8.016   0.953 -0.2497  0.1101  0.0575
    1W        W46332  26.531  23.162   1.354  0.0509  0.1448  0.1255
    1W        W46333  25.074  10.306   8.260 -0.1643  0.1339 -0.1414
    1W        W46334   7.154  30.066   1.967 -0.1485  0.2529 -0.0463
    1W        W46335  21.573   3.743   1.872 -0.4549  0.3906  0.0372
    1W        W46336  29.599   1.683   0.608 -0.2434 -0.0516  0.1066
    1W        W46337  16.949   9.065   0.730 -0.1685 -0.2657  0.2577
    1W        W46338   6.129  13.565   9.119  0.3247  0.1378  0.4170
    1W        W46339  21.586   5.979   0.732  0.1664 -0.3097  0.1863
    1W        W46340  11.168  12.652   9.128 -0.1477  0.0815  0.1199
    1W        W46341   2.832  30.060   9.271  0.3724 -0.0666 -0.0475
    1W        W46342  25.493   7.860   8.208 -0.1470 -0.0278 -0.1506
    1W        W46343   1.867  23.235   0.627 -0.0304  0.1495  0.4250
    1W        W46344   6.425  19.588   9.317  0.0284 -0.1963  0.0069
    1W        W46345  29.097   3.982   2.840  0.1694  0.0877 -0.1608
    1W        W46346   9.190   3.125   2.547  0.1796 -0.4030 -0.3550
    1W        W46347   6.020   3.787   7.813  0.0651 -0.0653  0.1342
    1W        W46348   3.241  25.053   6.238  0.1070  0.0124 -0.0558
    1W        W46349  10.049   4.126   0.964  0.1300 -0.0357  0.0955
    1W        W46350   8.532   6.976   0.442 -0.1025  0.0657  0.0579
    1W        W46351  10.319  29.512   9.376  0.2062 -0.1717 -0.1787
    1W        W46352  28.118   9.340   1.815 -0.1974  0.1118  0.0249
    1W        W46353   1.567   7.431   8.277  0.1022 -0.4021  0.0594
    1W        W46354  20.136  21.120   8.542  0.1029 -0.1105 -0.2370
    1W        W46355  27.374  10.204   1.673 -0.3125  0.1823  0.3621
    1W        W46356  20.636  29.227   2.739  0.2494  0.1917  0.0095
    1W        W46357  11.731  23.846   9.324 -0.1494  0.0386 -0.4614
    1W        W46358   8.429  10.168   3.452 -0.1478 -0.1286  0.1414
    1W        W46359  28.151  12.595   5.520  0.0318  0.3280  0.0788
    1W        W46360  17.062   6.085   0.939  0.0201 -0.3906 -0.3268
    1W        W46361   5.210  19.629   0.058 -0.2580  0.2468 -0.0434
    1W        W46362   6.642  22.649   1.670  0.1005  0.3083  0.2540
    1W        W46363  16.640   0.074   1.369  0.0188  0.5253 -0.0838
    1W        W46364   4.956  22.025   7.305 -0.0992  0.2339 -0.2306
    1W        W46365  13.743   3.498   0.579 -0.1646 -0.1967  0.1799
    1W        W46366  23.138  21.630   0.197 -0.0136 -0.1949  0.0123
    1W        W46367   2.294  17.964   1.446 -0.2343  0.0806  0.0392
    1W        W46368  22.476  20.953   6.851 -0.2261  0.0515  0.1975
    1W        W46369  20.862   4.635   2.792 -0.0918  0.0477 -0.0269
    1W        W46370   9.833   9.625   8.508 -0.2512 -0.0490  0.1145
    1W        W46371  12.293   5.817   3.798  0.2513 -0.1606 -0.0056
    1W        W46372  25.540  16.533   6.666  0.1306 -0.0718 -0.1164
    1W        W46373   7.654  15.690   6.380  0.0830 -0.2537 -0.2139
    1W        W46374  13.092   2.436   7.820  0.0954 -0.2101 -0.1620
    1W        W46375  17.571   6.910   7.393 -0.0850 -0.3424  0.1407
    1W        W46376  14.061   4.003   3.588 -0.0152 -0.1971 -0.3063
    1W        W46377   7.224  28.156   8.942  0.1518  0.0549 -0.4680
    1W        W46378  13.097  18.958   8.117 -0.0009 -0.2540 -0.1359
    1W        W46379  10.479   8.659   1.805  0.2306 -0.0422  0.1257
    1W        W46380  15.914   1.380   3.315 -0.0553 -0.0111  0.5133
    1W        W46381  16.707  13.904   1.766 -0.1602  0.0953  0.1557
    1W        W46382   2.917  10.806   0.796 -0.3478 -0.2267  0.0145
    1W        W46383  20.846  17.337   7.098  0.1576 -0.0521 -0.0341
    1W        W46384  13.444  13.674   1.827  0.2541  0.1401  0.0524
    1W        W46385  20.025   6.467   0.825  0.2629  0.1773  0.2093
    1W        W46386   1.791   5.257   8.719  0.1910  0.0274 -0.1161
    1W        W46387  24.781  12.974   8.079 -0.0173 -0.0751 -0.1084
    1W        W46388  28.171  15.839   6.662  0.0020  0.1932 -0.0694
    1W        W46389  28.822  28.808   0.626 -0.3407  0.0427 -0.1420
    1W        W46390  25.231   0.757   0.415  0.0436 -0.2131 -0.1691
    1W        W46391  16.816  28.019   9.367  0.1231 -0.0129 -0.1140
    1W        W46392  25.485  20.667   8.589  0.2545 -0.0644 -0.1394
    1W        W46393  27.029  23.220   8.547 -0.0953 -0.2322  0.0985
    1W        W46394  27.869   0.455   0.781 -0.1500  0.5459 -0.1688
    1W        W46395   2.144  24.374   6.874  0.1093  0.0036  0.3611
    1W        W46396   9.874   7.428   3.452 -0.0167 -0.2582  0.0533
    1W        W46397   8.365  28.019   0.892  0.4221  0.0252  0.0067
    1W        W46398  26.335   2.655   9.243 -0.0653  0.0730 -0.0248
    1W        W46399  14.833   8.046   8.128 -0.1441 -0.2280 -0.0340
    1W        W46400  12.196  10.492   1.236 -0.0079 -0.1213  0.1706
    1W        W46401  26.745  12.223   0.893  0.0406  0.0975 -0.2796
    1W        W46402  25.980   2.043   7.853 -0.0625 -0.0183  0.1134
    1W        W46403   7.678  14.323   0.853 -0.1413  0.1708 -0.0900
    1W        W46404  19.211   9.087   9.029  0.2074  0.0412 -0.1374
    1W        W46405  25.114   0.434   8.367  0.0650  0.0774 -0.1954
    1W        W46406   0.374  28.397   7.602  0.1976  0.2001  0.0446
    1W        W46407  26.992  25.140   1.032  0.3448 -0.0867  0.0026
    1W        W46408  14.625  10.473   7.247  0.1757  0.0193 -0.1294
    1W        W46409   1.466   8.463   1.221  0.2861  0.1407 -0.0800
    1W        W46410   4.936  21.769   8.065  0.0748  0.3087  0.0041
    1W        W46411  21.249   2.925   6.172 -0.0113 -0.0677  0.0672
    1W        W46412   7.361   0.564   9.292  0.2496  0.0007 -0.1686
    1W        W46413  28.921   6.088   6.924 -0.1222  0.1281  0.0051
    1W        W46414  11.226  12.201   8.799  0.1265 -0.3112 -0.0696
    1W        W46415  22.748  14.222   1.124 -0.3079 -0.0642 -0.1280
    1W        W46416  11.361  21.691   1.291  0.1175  0.0111 -0.0760
    1W        W46417  18.260  20.166   0.612 -0.0223 -0.0355  0.3391
    1W        W46418   4.052   3.799   0.669  0.0744 -0.0982 -0.0716
    1W        W46419  15.881   9.756   1.047  0.0354  0.0204 -0.0253
    1W        W46420  27.396   7.652   0.106 -0.0146  0.0395  0.2996
    1W        W46421   6.137  20.828   8.035 -0.0809 -0.1564  0.1131
    1W        W46422  13.185   9.770   1.623  0.0317  0.0798 -0.0800
    1W        W46423   1.584   5.144   2.332  0.1655 -0.0792  0.0853
    1W        W46424  12.621   4.071   9.353 -0.2937 -0.0725 -0.0489
    1W        W46425   7.370   6.482   8.824  0.0291  0.1067 -0.5690
    1W        W46426  26.514  26.419   2.105  0.4632 -0.4180 -0.0645
    1W        W46427   6.759   5.490   1.952 -0.0111  0.0009  0.0710
    1W        W46428   0.891  11.824   1.106 -0.1701  0.2459  0.1038
    1W        W46429   4.628  25.891   1.351 -0.1331 -0.0321  0.2578
    1W        W46430  25.322  27.648   1.109 -0.0094 -0.1047 -0.1408
    1W        W46431  13.055  12.268   8.615  0.0638 -0.0856  0.1740
    1W        W46432  19.105  20.811   2.659  0.0111  0.2732  0.3465
    1W        W46433  18.106  13.988   8.284 -0.0691  0.1458  0.1749
    1W        W46434   2.200  11.918   8.267  0.1086  0.0927  0.1028
    1W        W46435  24.563  18.486   7.315 -0.1782  0.1708 -0.2760
    1W        W46436  25.171  25.270   7.097 -0.1867 -0.0495  0.2393
    1W        W46437  10.734  25.385   6.730  0.5030  0.0798  0.3727
    1W        W46438  26.832   8.418   8.811  0.0972  0.0169  0.0642
    1W        W46439   0.341   4.491   2.786  0.0712  0.2188  0.0043
    1W        W46440   1.878  25.874   0.761  0.3543  0.0250 -0.1969
    1W        W46441  12.643  24.892   0.259  0.2238 -0.1283 -0.0342
    1W        W46442  19.237  14.792   8.550  0.2912 -0.2334 -0.5171
    1W        W46443  27.800  22.322   6.519  0.2312 -0.2263  0.1163
    1W        W46444   5.921  15.488   0.703 -0.2676 -0.0900 -0.2673
    1W        W46445   7.103   2.737   0.615 -0.1696 -0.0126 -0.0725
    1W        W46446  16.689  24.445   2.197  0.3741  0.3616 -0.1303
    1W        W46447  17.407  23.257   3.089 -0.2376  0.0458  0.3227
    1W        W46448   3.002  15.882   6.387 -0.0449  0.0706  0.0652
    1W        W46449  15.086   2.205   2.540  0.0565 -0.1010  0.2527
    1W        W46450   1.599  15.470   7.346 -0.0760 -0.0550 -0.4603
    1W        W46451   6.288   7.752   9.059  0.2024 -0.1113 -0.0330
    1W        W46452  13.111  22.423   7.789  0.0726 -0.0019  0.0078
    1W        W46453   3.515  22.121   5.827  0.1677 -0.0654  0.0850
    1W        W46454   2.645   7.726   8.546  0.0877 -0.3013  0.0936
    1W        W46455   8.895  16.339   8.783  0.1325  0.2605  0.5247
    1W        W46456  22.178   3.122   6.759  0.0046 -0.1832  0.1622
    1W        W46457   2.318   2.010   2.038  0.0561  0.0681 -0.0779
    1W        W46458  24.565  17.663   7.385  0.0165  0.0052  0.0101
    1W        W46459  27.612   1.315   0.865 -0.0062  0.0691  0.2438
    1W        W46460  12.151  16.797   0.015  0.0660  0.0492 -0.0049
    1W        W46461  10.676   1.338   9.336  0.2435 -0.1004  0.2258
    1W        W46462  24.401  23.767   0.038 -0.0845  0.1711 -0.0395
    1W        W46463  17.443   1.352   7.493  0.2518  0.0690 -0.2004
    1W        W46464   7.132   5.736   8.327 -0.2264 -0.2606  0.0631
    1W        W46465  18.984  15.469   0.911  0.3540 -0.0752  0.1426
    1W        W46466   2.193  26.063   7.490 -0.1758  0.0455 -0.0015
    1W        W46467   6.874  16.379   8.145 -0.2164 -0.3014  0.0723
    1W        W46468  20.125  24.383   3.192 -0.1110  0.1453 -0.1256
    1W        W46469   2.841  18.800   1.172  0.0041  0.2445  0.0048
    1W        W46470  14.799  26.684   8.632  0.0808  0.0865 -0.2368
    1W        W46471   9.235  23.103   6.207  0.1570  0.2336 -0.2020
    1W        W46472  28.085   7.337   0.833  0.0588 -0.0266 -0.1535
    1W        W46473   8.785   3.112   0.354 -0.2640 -0.0420 -0.0997
    1W        W46474  10.015   8.697   7.468 -0.0959  0.2282  0.2016
    1W        W46475  17.551  26.888   6.670  0.0079 -0.0182  0.1691
    1W        W46476   2.606  15.274   8.381 -0.2103 -0.1332 -0.0716
    1W        W46477  17.608  10.193   0.212  0.0511  0.3870 -0.2029
    1W        W46478   9.822  22.327   7.006 -0.4021  0.1401  0.0359
    1W        W46479   2.839  28.457   7.834  0.1037 -0.1012 -0.1293
    1W        W46480  13.348  12.454   1.476  0.1698 -0.0126  0.1021
    1W        W46481  14.271   5.848   1.117 -0.0134 -0.1342  0.2207
    1W        W46482  24.919  10.771   1.856  0.1364  0.2118 -0.1720
    1W        W46483   7.522  22.076   7.981  0.2663 -0.0294 -0.2001
    1W        W46484  20.538  15.496   7.055 -0.1812 -0.2979  0.1644
    1W        W46485  17.700  23.727   3.346 -0.0502  0.1546 -0.2458
    1W        W46486  27.839   9.109   0.867 -0.1985 -0.1801 -0.1213
    1W        W46487   2.028  17.499   0.301 -0.2490  0.1907 -0.1007
    1W        W46488  23.524  24.426   1.499 -0.0875  0.1263  0.2129
    1W        W46489  12.700  13.866   2.124  0.1622 -0.2066 -0.3817
    1W        W46490  12.329  27.463   9.035 -0.0965 -0.1874 -0.4128
    1W        W46491  20.168  29.304   3.000 -0.0445 -0.0014  0.3663
    1W        W46492   2.455   1.009   9.376  0.2525  0.4176  0.0757
    1W        W46493  27.257  22.732   7.203  0.0369 -0.2226  0.1097
    1W        W46494   8.440   7.274   7.524 -0.0174 -0.2601 -0.0982
    1W        W46495  25.562   5.193   1.292  0.1074  0.1044  0.0815
    1W        W46496  21.796   0.482   6.187  0.0154 -0.0625 -0.0992
    1W        W46497  13.390  15.342   1.668  0.0091  0.1886  0.0826
    1W        W46498  24.816  20.107   2.461 -0.0410  0.2868  0.1028
    1W        W46499  20.612  23.262   6.310 -0.1809 -0.0136  0.0783
    1W        W46500  21.280   5.231   6.941  0.1043  0.1478  0.1370
    1W        W46501  27.285   6.338   6.149  0.3066  0.0686 -0.0565
    1W        W46502   7.550  14.642   7.369 -0.0562 -0.2252  0.0853
    1W        W46503  13.240  13.366   9.334 -0.1421 -0.1154 -0.2201
    1W        W46504  14.920  20.588   8.457 -0.0656 -0.0605  0.1023
    1W        W46505  24.056  21.644   8.871  0.0857 -0.1445 -0.2829
    1W        W46506  18.330  18.751   1.665 -0.1002  0.1131  0.1148
    1W        W46507  22.275  17.730   8.078 -0.0931  0.1748  0.1446
    1W        W46508   9.210  15.730   7.508 -0.1717 -0.1315  0.0323
    1W        W46509   0.257  19.589   6.757  0.2071  0.1897  0.1350
    1W        W46510  11.316   5.691   7.978  0.3525 -0.0116 -0.2915
    1W        W46511   5.335  17.998   6.560  0.4178  0.0780 -0.1655
    1W        W46512   6.338  18.753   1.223  0.0685  0.0520  0.3006
    1W        W46513   0.145  20.428   8.631  0.1379  0.1860 -0.1189
    1W        W46514  13.382   7.396   3.055 -0.0002 -0.0822 -0.3157
    1W        W46515  25.967  11.329   6.137 -0.1873 -0.1898  0.2040
    1W        W46516   2.528   2.894   1.432 -0.0902  0.1970  0.1337
    1W        W46517  18.610  15.767   7.890  0.0321  0.0094 -0.0093
    1W        W46518   1.020  13.806   5.280  0.0162  0.2019 -0.0122
    1W        W46519  11.738   0.088   0.696  0.0906  0.4045  0.0099
    1W        W46520  20.014  12.498   0.222 -0.0966  0.1415  0.1238
    1W        W46521  11.741   3.106   2.597 -0.2951  0.1854  0.2712
    1W        W46522   9.985   3.273   3.302 -0.1038 -0.0554  0.1877
    1W        W46523   3.121   1.752   2.636  0.2420 -0.0455  0.0064
    1W        W46524  28.333  16.476   7.547 -0.1438 -0.1698  0.1250
    1W        W46525  15.849   4.268   7.888  0.1300 -0.1639  0.1640
    1W        W46526  11.116  22.949   0.151  0.0176 -0.0891 -0.1625
    1W        W46527   7.663  20.405   0.000 -0.0310  0.1305 -0.0848
    1W        W46528  23.419  15.798   8.958  0.1637  0.0375  0.0362
    1W        W46529   1.860  20.264   7.991  0.1142  0.0085 -0.1295
    1W        W46530   9.994  26.394   1.947  0.1579  0.0037 -0.3634
    1W        W46531   9.914   9.151   0.249 -0.1815 -0.0080 -0.3034
    1W        W46532   3.498   8.808   8.911  0.0507 -0.1125  0.0887
    1W        W46533  20.084  19.374   8.479 -0.0763 -0.0147 -0.2508
    1W        W46534   7.470  17.999   6.492  0.1756 -0.0443  0.0617
    1W        W46535  15.260   6.074   1.285  0.1906  0.3383  0.0916
    1W        W46536  17.294   8.186   3.201  0.2229  0.1733 -0.1414
    1W        W46537  24.916  15.314   8.996 -0.0398  0.1875  0.0988
    1W        W46538  20.750  30.040   7.353 -0.0302 -0.0224 -0.0255
    1W        W46539  24.442  14.539   0.217 -0.2105 -0.0428 -0.4280
    1W        W46540   5.166   7.703   2.292  0.0238  0.1812 -0.1336
    1W        W46541  20.180   4.081   3.200  0.1281  0.5490 -0.2927
    1W        W46542   6.978   6.503   7.812  0.1288  0.3516 -0.2892
    1W        W46543  10.968  12.774   8.343 -0.2126 -0.0200  0.3267
    1W        W46544   7.120   7.154   6.982  0.0332  0.1694  0.1518
    1W        W46545   5.671   6.348   2.358  0.1161 -0.0911 -0.2441
    1W        W46546   7.966  28.953   9.112 -0.0465 -0.1184  0.0645
    1W        W46547   6.340  28.437   8.406  0.3367  0.1642  0.0295
    1W        W46548  12.581  27.152   7.777  0.2807  0.4119  0.3227
    1W        W46549  29.843  22.855   6.677 -0.0388 -0.0744 -0.0943
    1W        W46550  21.302  25.289   7.012 -0.1523 -0.1301 -0.1101
    1W        W46551  15.219  13.881   0.424  0.0956 -0.1155  0.0720
    1W        W46552   6.333  21.922   9.152 -0.1639 -0.0502  0.0192
    1W        W46553  12.121  12.556   2.812  0.2439  0.1522  0.1058
    1W        W46554  12.848  17.321   2.262 -0.3127  0.1833 -0.2176
    1W        W46555  29.958  21.988   8.486 -0.1476  0.0511  0.0276
    1W        W46556  18.605  12.445   0.874 -0.1153  0.4131 -0.1212
    1W        W46557  19.479   8.541   7.340 -0.2185  0.1623  0.0633
    1W        W46558   5.554   5.635   1.001 -0.0524  0.3621 -0.1604
    1W        W46559  21.789  18.711   8.875 -0.2295 -0.0059  0.0541
    1W        W46560  25.013  26.235   8.091 -0.0889 -0.1498 -0.1727
    1W        W46561   9.005  16.155   7.734 -0.1757  0.1804 -0.0487
    1W        W46562  14.493   7.731   8.646  0.0345  0.0905  0.0370
    1W        W46563   4.557   1.800   0.420  0.0224  0.1243 -0.0898
    1W        W46564   2.659  11.649   8.104 -0.1304  0.0165  0.4922
    1W        W46565  12.335   4.133   2.365  0.1234  0.0894  0.1498
    1W        W46566  20.368  16.961   7.367 -0.0424 -0.0955  0.0605
    1W        W46567  26.048  19.937   8.277 -0.0579 -0.2805  0.1451
    1W        W46568   3.105   0.898   1.194 -0.4431 -0.0086  0.2123
    1W        W46569   6.715  24.228   6.091  0.0271 -0.2597  0.0486
    1W        W46570  26.221  11.284   8.668 -0.0217 -0.3077  0.1693
    1W        W46571  27.986  18.572   7.121  0.0214  0.2295 -0.1387
    1W        W46572  22.689  28.492   0.843  0.4269  0.0314  0.0870
    1W        W46573  28.868   6.894   7.752  0.1882 -0.1954  0.0978
    1W        W46574  21.753  28.647   0.647 -0.0829  0.1850  0.2301
    1W        W46575  17.487  26.487   1.160 -0.1792 -0.1037  0.1692
    1W        W46576  13.849  27.160   7.078  0.2856 -0.0588 -0.0415
    1W        W46577  29.022   9.764   7.069  0.1533 -0.0662 -0.1143
    1W        W46578  16.619  27.825   7.827 -0.0447  0.2067 -0.1135
    1W        W46579  23.623  18.710   0.909 -0.3341  0.0656  0.1043
    1W        W46580  29.877  19.957   8.625  0.2168 -0.0367  0.0350
    1W        W46581  21.481   2.949   8.723  0.0609 -0.0451  0.0465
    1W        W46582  12.524   2.915   0.589 -0.0024  0.1797 -0.1238
    1W        W46583  10.975   0.371   2.608 -0.0018 -0.3729  0.0193
    1W        W46584   5.467  14.741   6.077 -0.0911 -0.0322 -0.1092
    1W        W46585  17.106  13.859   0.860  0.0627 -0.2234 -0.0217
    1W        W46586  15.678   4.595   8.313 -0.1289 -0.1897 -0.1048
    1W        W46587  14.506  14.426   7.815 -0.0919 -0.4103 -0.1244
    1W        W46588  13.550  25.085   1.913  0.2604  0.1396 -0.2989
    1W        W46589  19.913   5.645   7.596 -0.0199  0.2550 -0.1359
    1W        W46590   9.643  21.760   6.926  0.0545 -0.0995  0.0230
    1W        W46591   2.300   3.627   0.279 -0.2771  0.1227 -0.2885
    1W        W46592   7.793  26.517   8.358 -0.0123  0.0949  0.3176
    1W        W46593  19.273   1.421   9.242 -0.2144 -0.0248 -0.4000
    1W        W46594   8.778  18.330   8.803 -0.1789 -0.1310 -0.0937
    1W        W46595  24.295  16.618   8.501 -0.0077 -0.2589 -0.0424
    1W        W46596   7.961  20.386   1.255  0.0852  0.1077  0.0211
    1W        W46597   2.015   0.513   1.284 -0.3518 -0.2019  0.1667
    1W        W46598   9.407  23.526   9.369 -0.3980  0.0510  0.0682
    1W        W46599  13.689  25.825   2.380 -0.0330 -0.0116 -0.0012
    1W        W46600  25.353  10.874   1.580  0.0932  0.0456 -0.1480
    1W        W46601  17.894  10.404   8.727  0.0513 -0.2500  0.0733
    1W        W46602   5.787  22.017   8.411  0.3489  0.2977 -0.0041
    1W        W46603  29.201  13.758   7.301 -0.1723 -0.0005 -0.0190
    1W        W46604  16.940  27.549   1.585  0.0905 -0.0183  0.0915
    1W        W46605  11.370  18.074   0.762 -0.0201  0.0182  0.4053
    1W        W46606   6.766  26.950   0.456 -0.2058 -0.1698  0.0912
    1W        W46607  26.605   7.962   9.175  0.1018  0.0553 -0.1308
    1W        W46608  25.707  15.878   1.710 -0.1984 -0.0582 -0.0392
    1W        W46609  20.332   7.846   2.221 -0.1061  0.1013  0.1414
    1W        W46610  11.010  26.170   1.807 -0.1671 -0.2525  0.1255
    1W        W46611   6.764   3.272   1.978  0.1536  0.1188  0.1325
    1W        W46612  16.769  28.691   2.429  0.0178 -0.2622 -0.0052
    1W        W46613  13.701  29.286   2.437  0.6096 -0.2062 -0.0235
    1W        W46614   7.006  26.512   1.904 -0.0385 -0.1133 -0.1001
    1W        W46615  28.066   3.496   2.892  0.2143  0.1131 -0.0417
    1W        W46616   4.338  27.154   2.749  0.1583 -0.1135 -0.3123
    1W        W46617  21.861  14.461   2.321  0.1463 -0.0029  0.1921
    1W        W46618  25.746   0.594   1.790 -0.1019 -0.0922 -0.1080
    1W        W46619  18.965  10.372   7.253  0.0396  0.1844 -0.4096
    1W        W46620  23.343  26.077   0.072  0.2145  0.0164 -0.1451
    1W        W46621   4.565  18.127   1.675 -0.0774 -0.2361 -0.0749
    1W        W46622  18.436  15.192   8.783  0.0567  0.1040  0.1104
    1W        W46623  13.286  20.620   7.494 -0.0912 -0.2214 -0.2456
    1W        W46624   5.477  27.500   2.213  0.1067  0.3377 -0.2511
    1W        W46625  12.073  19.675   1.195 -0.2559 -0.1227 -0.2124
    1W        W46626  16.460  10.033   1.836  0.0699 -0.1058 -0.0214
    1W        W46627  15.748  11.557   8.292  0.0714 -0.1063 -0.0863
    1W        W46628  16.708   6.416   2.445 -0.0824 -0.0480  0.0577
    1W        W46629  21.774  28.329   1.173  0.1212  0.2842  0.2513
    1W        W46630  27.176   8.639   8.474  0.2470 -0.0776 -0.3870
    1W        W46631   4.799  14.673   6.692 -0.1389  0.0555  0.1154
    1W        W46632  10.041  27.393   8.813 -0.1550 -0.0900 -0.0965
    1W        W46633  12.055  17.992   8.655  0.2344 -0.2271 -0.2455
    1W        W46634  23.365  22.563   7.904  0.0322  0.1428 -0.1963
    1W        W46635  26.849   8.396   9.323 -0.0165 -0.2270 -0.0749
    1W        W46636   5.883   4.830   0.219 -0.2241 -0.0588 -0.1623
    1W        W46637  21.581  29.208   6.945  0.0035  0.0194  0.0868
    1W        W46638  29.239  21.707   7.204  0.4795  0.0540 -0.1565
    1W        W46639  15.353   3.419   1.013 -0.2624  0.4500  0.0667
    1W        W46640  14.855  30.152   1.657  0.0092  0.1570  0.1335
    1W        W46641  17.727  13.804   7.840 -0.1268  0.2423  0.3484
    1W        W46642  21.301  28.586   2.182 -0.0296  0.1724 -0.4537
    1W        W46643  18.540   1.326   0.050 -0.4147  0.0575  0.0937
    1W        W46644  22.376  30.071   8.203  0.0737 -0.1925  0.1697
    1W        W46645   0.938   2.230   1.055  0.2995  0.5228 -0.2483
    1W        W46646  20.074  13.121   8.409 -0.3386 -0.1681 -0.0338
    1W        W46647  27.463   3.934   2.229  0.1342 -0.1659 -0.3187
    1W        W46648   3.191   4.236   8.981 -0.0426 -0.2306  0.0465
    1W        W46649  20.943   1.887   7.280 -0.0950 -0.0699  0.2178
    1W        W46650   2.623  17.314   0.195  0.1905 -0.0140  0.2055
    1W        W46651  26.113  15.859   0.330 -0.0995 -0.0695 -0.2021
    1W        W46652   8.587  16.187   8.083  0.0078  0.2261 -0.1502
    1W        W46653  28.541  13.077   6.162 -0.3552 -0.0246  0.0365
    1W        W46654  24.134   5.721   2.401 -0.1528  0.0067 -0.3619
    1W        W46655   8.044   2.659   0.065 -0.0073 -0.1707  0.2052
    1W        W46656   8.054   5.151   1.723 -0.0948  0.1537  0.0774
    1W        W46657  23.351  10.139   7.587 -0.3599 -0.3639  0.2108
    1W        W46658  24.574   2.078   0.377  0.0915  0.1596  0.0753
    1W        W46659  21.659  27.506   1.378 -0.4674  0.0211 -0.1935
    1W        W46660  12.875   0.843   8.168 -0.0249  0.0001  0.1166
    1W        W46661  12.180  22.792   7.548 -0.0771 -0.2546  0.1900
    1W        W46662  26.641  27.462   6.733  0.2101 -0.3330  0.1079
    1W        W46663   5.521  10.099   0.159  0.0685  0.4011 -0.4271
    1W        W46664   8.876   4.647   2.218  0.2016  0.0504 -0.0414
    1W        W46665   4.802  18.707   0.480 -0.1150 -0.0620 -0.1683
    1W        W46666   4.224  30.138   7.606 -0.2477  0.1817 -0.0872
    1W        W46667  11.557  11.358   8.418 -0.0517  0.1977 -0.2231
    1W        W46668  24.212   1.058   7.014  0.3712  0.1891  0.0983
    1W        W46669  26.534  16.548   9.210  0.1204  0.0268 -0.4103
    1W        W46670  11.378  28.034   1.748 -0.1199  0.2814  0.0787
    1W        W46671  17.138   9.673   0.849 -0.0225 -0.1317 -0.1855
    1W        W46672  28.942  12.540   2.223 -0.0271  0.1215  0.0403
    1W        W46673   9.262  22.345   5.487 -0.2281  0.2137  0.1232
    1W        W46674   9.642   5.083   9.167  0.1563  0.0833  0.1567
    1W        W46675   4.730  23.956   0.371 -0.2607 -0.4420  0.0661
    1W        W46676  27.529  30.102   9.356  0.2048 -0.3238 -0.3830
    1W        W46677  27.985   2.105   7.729  0.1459 -0.3749  0.2349
    1W        W46678   9.005  29.624   7.461  0.0580  0.0830  0.1344
    1W        W46679   5.438  18.684   8.473  0.1080  0.0574 -0.1174
    1W        W46680  11.776  25.183   9.396  0.0762 -0.5029  0.3240
    1W        W46681   6.443  24.629   9.244 -0.1832  0.1971 -0.1452
    1W        W46682  22.074  23.421   2.454  0.0102 -0.1464 -0.0068
    1W        W46683  12.320  18.708   8.383 -0.0029  0.0122  0.4768
    1W        W46684  14.506  28.889   0.799 -0.4073 -0.0910 -0.0102
    1W        W46685  16.556   1.054   8.560  0.1054 -0.0742  0.0418
    1W        W46686  22.277  12.328   0.672  0.0060  0.0962  0.1384
    1W        W46687  22.754  14.337   7.457  0.3791 -0.0957 -0.0637
    1W        W46688   8.556  15.172   8.742 -0.0248  0.0378 -0.3419
    1W        W46689  27.614   5.159   8.314 -0.2020 -0.2382  0.0695
    1W        W46690  27.638  17.779   1.390 -0.1312 -0.1023  0.0140
    1W        W46691  17.569  20.692   0.059 -0.0853 -0.1548  0.0114
    1W        W46692   6.516   4.390   6.421  0.1642  0.1754  0.1359
    1W        W46693  14.473  29.516   2.074  0.0338  0.0010 -0.1586
    1W        W46694   5.765   5.873   7.611  0.0066 -0.0299 -0.0935
    1W        W46695  28.285   4.959   0.424 -0.0518  0.2757 -0.1803
    1W        W46696   3.367   6.944   0.326  0.1355 -0.0453  0.0524
    1W        W46697   0.942   8.966   6.635 -0.0012  0.1097 -0.0860
    1W        W46698  28.133  14.406   7.344 -0.2539 -0.4180 -0.2031
    1W        W46699  15.530  25.072   6.029  0.2990 -0.0321 -0.1775
    1W        W46700   0.370  12.183   6.332 -0.1419  0.3117  0.0396
    1W        W46701   1.711   0.894   1.093  0.1173 -0.1411 -0.0721
    1W        W46702  21.724  25.533   7.156 -0.1851 -0.0679  0.1673
    1W        W46703  13.209   5.404   8.418 -0.3194 -0.4540 -0.0779
    1W        W46704   5.216   3.111   1.371 -0.0123 -0.3121  0.1329
    1W        W46705  20.087  22.321   1.147  0.0598  0.2236  0.1554
    1W        W46706  23.952   2.139   7.544  0.1909 -0.0465  0.1197
    1W        W46707  13.555  25.025   8.000  0.3397 -0.1088 -0.1002
    1W        W46708  14.592  26.091   0.801  0.2808 -0.1027  0.2028
    1W        W46709   0.253  24.816   2.209 -0.0637  0.1007  0.0972
    1W        W46710  25.282  12.100   5.284 -0.3124 -0.4322  0.2080
    1W        W46711   7.494  28.578   7.170 -0.4768 -0.2410  0.0008
    1W        W46712  16.268  10.124   0.528 -0.1286 -0.3424  0.2453
    1W        W46713   4.409  19.678   5.080  0.0029  0.1052  0.1455
    1W        W46714  18.019  25.762   2.532 -0.1716  0.1166  0.0547
    1W        W46715  24.588   5.118   8.871  0.1473 -0.2123  0.2206
    1W        W46716   4.262  24.573   7.707 -0.0222  0.1541  0.1012
    1W        W46717   9.536  25.785   0.803  0.0523 -0.1200 -0.3227
    1W        W46718  18.066  11.186   9.029  0.3828  0.1201  0.0089
    1W        W46719  11.484  27.598   2.939  0.0778 -0.1573 -0.0857
    1W        W46720  25.041   2.315   2.143  0.2273  0.1213  0.5366
    1W        W46721  23.719   6.577   2.607  0.0200  0.1069  0.0829
    1W        W46722  21.267   5.654   0.508  0.0876  0.0687 -0.0423
    1W        W46723  26.191  11.743   1.507 -0.3887 -0.0665 -0.5290
    1W        W46724  27.885   7.869   6.742 -0.0915  0.1907  0.1678
    1W        W46725  17.040  26.070   6.746 -0.0087 -0.1564 -0.0705
    1W        W46726  11.052   1.999   2.847 -0.0629 -0.0252 -0.1905
    1W        W46727  15.214  14.463   8.313  0.2697 -0.2525  0.1249
    1W        W46728  13.433  21.816   9.021  0.0675  0.0533 -0.4660
    1W        W46729  16.461  21.323   1.179  0.0738  0.2839  0.0022
    1W        W46730   9.627  29.550   6.800 -0.0548 -0.0417 -0.2789
    1W        W46731  27.429   0.627   5.970  0.3675  0.0979 -0.0890
    1W        W46732   5.545  17.352   0.968  0.2072  0.2059 -0.2478
    1W        W46733  25.584  20.592   0.462 -0.0404 -0.2985 -0.3180
    1W        W46734  22.360  17.241   7.931 -0.0057  0.0653 -0.0856
    1W        W46735   3.166  16.093   8.596 -0.2042 -0.0923  0.1537
    1W        W46736  16.183  20.961   1.983 -0.1564 -0.1589 -0.3223
    1W        W46737  25.541  24.434   7.124 -0.0321 -0.0635 -0.1291
    1W        W46738  11.521   0.502   2.538  0.1282  0.0504  0.0984
    1W        W46739   5.543  17.312   6.317  0.4559 -0.0407  0.0711
    1W        W46740  20.995   6.410   0.207 -0.1738 -0.0600  0.0394
    1W        W46741  11.729  22.313   7.822 -0.0274  0.2266 -0.2154
    1W        W46742  29.224  22.735   0.318  0.0526  0.3147  0.1118
    1W        W46743   3.722  18.988   9.224  0.3357  0.0975 -0.2169
    1W        W46744   1.433  19.438   5.012  0.2282  0.3615 -0.2749
    1W        W46745   6.019   8.396   2.700  0.0314 -0.0215  0.3237
    1W        W46746  13.552  28.054   0.439  0.0974 -0.1569 -0.0135
    1W        W46747   7.587  27.851   6.719  0.0929 -0.1240  0.0755
    1W        W46748  18.825   8.275   3.129 -0.0995 -0.4240 -0.0465
    1W        W46749   9.325  23.186   2.291  0.0179 -0.1204  0.0217
    1W        W46750  22.339  21.098   1.504 -0.1518  0.0379 -0.2603
    1W        W46751  29.980  20.540   7.934  0.2876 -0.0197  0.1837
    1W        W46752  20.843  13.225   8.109  0.2797 -0.2913  0.1486
    1W        W46753  19.030  22.917   2.503 -0.0772  0.0268 -0.0642
    1W        W46754  13.027  29.280   1.764 -0.0646  0.2769  0.1530
    1W        W46755  12.876  23.976   0.347  0.1190  0.2026  0.0465
    1W        W46756   2.701  17.962   9.392  0.1310  0.1285  0.2881
    1W        W46757  10.316  16.683   1.646 -0.0254  0.0516 -0.3621
    1W        W46758  13.540  20.116   8.766  0.1608  0.1863  0.1149
    1W        W46759   0.466   4.701   0.049 -0.2035 -0.0017 -0.1361
    1W        W46760  10.502  15.345   2.074 -0.0095 -0.0982 -0.0279
    1W        W46761  28.988  10.721   0.847  0.4167  0.0433  0.0078
    1W        W46762  25.297   1.942   1.919 -0.3176 -0.0901 -0.2458
    1W        W46763   2.918   8.982   0.634  0.0148  0.4186  0.1412
    1W        W46764   5.554   1.092   9.016  0.1804 -0.1630  0.3549
    1W        W46765  14.059  19.708   6.964  0.0435  0.2507  0.1243
    1W        W46766  29.828  13.378   8.897 -0.3153 -0.2270  0.1572
    1W        W46767   7.672   2.651   9.089 -0.1150  0.0113  0.3136
    1W        W46768   9.051   3.833   7.461 -0.0471  0.0337  0.2478
    1W        W46769  16.537  23.688   7.628 -0.1993  0.0593 -0.0414
    1W        W46770  19.523  14.516   6.990  0.0285  0.1302  0.0591
    1W        W46771  26.713  26.714   8.574  0.0811 -0.0297  0.2121
    1W        W46772  19.562   0.845   1.104 -0.1560  0.1189  0.1363
    1W        W46773   8.447  23.623   0.973  0.6472 -0.2578 -0.0217
    1W        W46774  13.817  12.553   1.104 -0.3180  0.0394 -0.1570
    1W        W46775  23.818   5.539   9.353 -0.1559 -0.5049  0.3779
    1W        W46776   7.795   0.275   0.937  0.2203  0.1386  0.1087
    1W        W46777  15.607  30.147   7.896  0.1681 -0.0036  0.0612
    1W        W46778  20.678  15.794   7.449 -0.1493  0.1950  0.2642
    1W        W46779   2.823  10.426   1.141  0.2927 -0.1579 -0.2654
    1W        W46780  13.924  27.830   2.855 -0.2211 -0.1941  0.3134
    1W        W46781   9.058  12.539   0.424  0.1657  0.0087  0.1807
    1W        W46782   9.653   8.962   1.150  0.0342  0.0501  0.0124
    1W        W46783  13.664  11.668   8.841  0.1189 -0.1282 -0.0847
    1W        W46784   4.452  15.385   7.194 -0.0343  0.0619  0.0157
    1W        W46785   5.314   4.861   7.448 -0.0712 -0.0242  0.1075
    1W        W46786  19.258   3.956   0.796 -0.0368 -0.1323  0.0031
    1W        W46787   5.939  11.085   7.392  0.0616  0.2643  0.0178
    1W        W46788  19.258  24.518   0.142 -0.5001 -0.0612  0.0299
    1W        W46789  29.108  23.788   1.587 -0.1423  0.1757 -0.0353
    1W        W46790   5.834  12.666   1.433 -0.0972  0.0097  0.1098
    1W        W46791  25.652  23.991   8.393 -0.3090 -0.1290  0.1003
    1W        W46792   4.485  21.146   6.789  0.2705 -0.4357  0.0847
    1W        W46793   7.561  17.773   6.928  0.2681  0.0832  0.0773
    1W        W46794   8.233  22.831   6.281  0.2112 -0.0314  0.0548
    1W        W46795   2.759  19.980   9.149 -0.0421  0.1881  0.0852
    1W        W46796  22.063  23.889   2.643  0.0732  0.0926 -0.1034
    1W        W46797  22.104  22.979   3.099 -0.0108 -0.0050  0.0344
    1W        W46798  25.990   6.730   0.399  0.1365 -0.1366 -0.4845
    1W        W46799  29.537   5.056   5.999  0.2360  0.1478 -0.1932
    1W        W46800  21.212   1.583   0.294  0.0119 -0.0218  0.0797
    1W        W46801  22.033   3.626   1.582  0.1219 -0.2255 -0.2352
    1W        W46802  16.105  22.589   8.255  0.4212 -0.0095 -0.1366
    1W        W46803  20.225   2.533   2.843 -0.1238 -0.1053  0.1317
    1W        W46804  26.235  28.963   1.548  0.1233 -0.1057 -0.0726
    1W        W46805  23.995   0.281   9.330 -0.0952 -0.0201 -0.1058
    1W        W46806   4.624  10.219   2.649  0.1293 -0.0639  0.0324
    1W        W46807   3.589  25.916   7.137  0.0794  0.1529  0.1352
    1W        W46808   9.815  26.437   2.779  0.2224  0.2285 -0.1172
    1W        W46809  22.882  28.769   7.277 -0.0965  0.1271 -0.3243
    1W        W46810  26.784   1.888   0.158 -0.2489 -0.1538 -0.0530
    1W        W46811   1.576  26.369   8.443  0.1556 -0.0165 -0.0099
    1W        W46812  29.634   3.003   8.985  0.2903  0.2652 -0.2654
    1W        W46813  25.671  30.110   0.859  0.2609  0.0905 -0.3075
    1W        W46814  11.571  14.313   0.020  0.0213 -0.1681  0.0876
    1W        W46815   8.926   9.813   8.200 -0.2700  0.0521  0.0634
    1W        W46816  11.944  24.742   9.162  0.0860 -0.3780 -0.2349
    1W        W46817   6.985  23.843   6.242  0.0124 -0.0602 -0.1898
    1W        W46818   0.111  28.050   8.822  0.0082  0.0046  0.2719
    1W        W46819   8.854   7.415   8.897  0.0773  0.1566  0.1429
    1W        W46820  29.267   5.241   6.899  0.2090  0.0099 -0.1011
    1W        W46821   8.664   1.868   1.483  0.2405 -0.1982 -0.0103
    1W        W46822  11.519  28.633   2.875 -0.0058  0.0217  0.0769
    1W        W46823  16.858  24.132   2.602  0.4835 -0.2068 -0.0043
    1W        W46824   2.466  23.315   6.047  0.0108 -0.1072 -0.0922
    1W        W46825  19.194   4.906   7.877  0.2816 -0.2820 -0.0531
    1W        W46826  28.207  22.400   8.852  0.2929 -0.1206 -0.1410
    1W        W46827  27.642  21.167   0.822 -0.1790  0.2601 -0.2850
    1W        W46828  21.240  16.433   9.095  0.1573 -0.5430 -0.0343
    1W        W46829  27.079  27.820   9.349 -0.2281 -0.1608 -0.0435
    1W        W46830  25.881  29.873   1.713  0.3247  0.1951 -0.0683
    1W        W46831   2.003  21.601   1.885  0.1656  0.1127 -0.1947
    1W        W46832   8.299   6.647   0.794  0.2689 -0.0412 -0.2162
    1W        W46833  27.716   5.754   0.714  0.1757 -0.2063 -0.0519
    1W        W46834  19.626  28.968   8.953 -0.1226  0.2290  0.2277
    1W        W46835  11.943  19.196   1.202 -0.1211  0.4721 -0.1121
    1W        W46836  10.634  19.408   0.916  0.1196 -0.3240 -0.3650
    1W        W46837  16.301  15.538   6.925  0.1819  0.2509 -0.2225
    1W        W46838  12.788  30.062   1.321 -0.0616 -0.0940  0.3101
    1W        W46839  16.085  16.998   1.847  0.3259 -0.1153 -0.0393
    1W        W46840   4.743  12.886   7.661 -0.4525  0.0336 -0.1160
    1W        W46841   5.991   0.153   8.048 -0.0621  0.2447 -0.0611
    1W        W46842  13.802  29.788   8.098  0.1246 -0.2006  0.1041
    1W        W46843  26.865  24.865   8.557 -0.1410 -0.1700 -0.0282
    1W        W46844  20.118  15.302   6.855 -0.0474 -0.1219 -0.1191
    1W        W46845   4.790  16.224   1.407 -0.0736 -0.5141 -0.2130
    1W        W46846  21.246  25.584   7.458  0.0951 -0.2405  0.2885
    1W        W46847   7.444   6.512   8.082 -0.1762 -0.1758 -0.1580
    1W        W46848  17.816  27.206   7.873 -0.0098  0.1554 -0.0124
    1W        W46849  19.911  26.539   9.073  0.0957 -0.4671 -0.1468
    1W        W46850   0.944   3.763   3.299 -0.1484  0.0563 -0.1757
    1W        W46851   3.652  14.826   6.379 -0.1185  0.0328  0.1871
    1W        W46852   7.302  24.871   7.667  0.1395 -0.3203  0.1267
    1W        W46853  19.797   1.654   7.163  0.1664  0.0097  0.0554
    1W        W46854  19.595   5.271   7.882 -0.4990  0.3421 -0.1296
    1W        W46855  23.766   8.581   2.695  0.0610 -0.0547 -0.1551
    1W        W46856  14.580  29.991   9.196  0.0229  0.0741 -0.1956
    1W        W46857   6.787  27.950   1.062 -0.0230 -0.2468 -0.0809
    1W        W46858  27.811  13.463   5.507  0.0265  0.0116 -0.0698
    1W        W46859  16.411  22.325   7.563 -0.2938  0.0519 -0.3332
    1W        W46860  11.339  28.417   9.227  0.2506  0.0435  0.0758
    1W        W46861  29.811   6.288   9.152 -0.0759  0.0280 -0.0497
    1W        W46862   6.299  23.146   6.788  0.0679  0.1708 -0.2949
    1W        W46863  21.144   3.700   1.542 -0.1033 -0.1670 -0.1355
    1W        W46864   4.435  16.850   0.088 -0.1153  0.0866  0.1399
    1W        W46865  10.677  26.355   7.990 -0.2125  0.2552  0.0981
    1W        W46866   3.340   0.568   8.172  0.3008  0.0487 -0.0742
    1W        W46867   1.351   7.780   9.084 -0.1755 -0.4234 -0.2575
    1W        W46868   0.779   4.407   6.610 -0.5208  0.0023 -0.0069
    1W        W46869  28.493  11.148   5.782 -0.1137  0.1532  0.0830
    1W        W46870   7.671  26.202   1.482 -0.2313  0.2200 -0.2865
    1W        W46871  25.315  21.074   1.901  0.1268  0.0053 -0.1168
    1W        W46872  14.063  25.507   1.187  0.0719 -0.0096 -0.1833
    1W        W46873   3.657  13.865   9.255 -0.3553 -0.1898 -0.0996
    1W        W46874   9.704  29.699   8.582  0.0378  0.1328 -0.0988
    1W        W46875   3.700  25.673   1.455  0.3469 -0.5671  0.0154
    1W        W46876  19.999  11.782   7.434  0.1085  0.0595  0.0230
    1W        W46877  17.967  17.703   8.811 -0.4759 -0.1431 -0.2565
    1W        W46878  14.215  10.499   1.188  0.1472 -0.1005 -0.3107
    1W        W46879  24.533  29.134   0.971  0.2616  0.1277 -0.3454
    1W        W46880  10.445  19.192   7.617  0.0971 -0.0124  0.1956
    1W        W46881   6.810  28.211   8.659 -0.0209 -0.1022  0.0858
    1W        W46882  29.242   1.003   8.154 -0.1358 -0.0147  0.0403
    1W        W46883  11.135  28.004   1.291  0.1409 -0.1545  0.1405
    1W        W46884  21.232  13.016   6.764  0.0227  0.0749  0.0366
    1W        W46885  27.208  25.333   6.777 -0.0903  0.2009  0.3427
    1W        W46886  23.740  27.125   7.389 -0.0944 -0.0303  0.0506
    1W        W46887   3.849  10.393   7.563 -0.0283 -0.0889 -0.0375
    1W        W46888  21.232  14.364   8.143  0.2561  0.0436 -0.1037
    1W        W46889  25.966  20.141   8.673  0.0186 -0.2042 -0.2182
    1W        W46890  11.556   2.230   8.778  0.0482  0.2862  0.1154
    1W        W46891   0.693  11.993   8.267  0.1397  0.2108 -0.1885
    1W        W46892   2.625  16.873   0.929 -0.0324 -0.3234 -0.1192
    1W        W46893  27.957  13.659   0.884  0.2850 -0.0876 -0.1664
    1W        W46894  10.092   9.423   3.786  0.3427 -0.0598  0.2851
    1W        W46895   7.561   6.049   0.214  0.0061  0.0828 -0.3599
    1W        W46896  13.101  25.404   1.146 -0.1697  0.0148 -0.2975
    1W        W46897  25.728  21.941   8.606 -0.2562  0.2506  0.3237
    1W        W46898   7.904  10.910   3.304 -0.1765  0.1764  0.3375
    1W        W46899  22.211  18.485   7.489  0.0630  0.0592 -0.1742
    1W        W46900  13.596  10.852   2.267 -0.3171  0.3280  0.0694
    1W        W46901  29.142  14.229   7.421 -0.0949 -0.0720 -0.3190
    1W        W46902   5.657   5.721   1.765 -0.2774 -0.3127  0.2305
    1W        W46903   4.738   7.832   8.947 -0.0712 -0.2410 -0.2242
    1W        W46904  16.600  19.482   0.519 -0.1235  0.1882  0.0801
    1W        W46905  25.661   2.222   1.492 -0.1911  0.0700 -0.1342
    1W        W46906  27.529  28.966   8.392 -0.0417 -0.3082 -0.0656
    1W        W46907  15.542   1.521   0.355  0.1411 -0.1084 -0.2505
    1W        W46908   1.343  22.130   1.627 -0.3152 -0.1521 -0.2718
    1W        W46909   8.078  24.448   6.761  0.3342  0.1250 -0.0421
    1W        W46910   2.700   9.555   6.620  0.2279  0.0440 -0.0262
    1W        W46911   2.493  15.178   7.489  0.4477 -0.2184  0.1792
    1W        W46912   0.287  25.187   0.436  0.0473 -0.0600  0.0055
    1W        W46913  23.065   5.746   1.650  0.0407 -0.0029  0.3435
    1W        W46914  13.704  27.394   2.400 -0.2218 -0.0256 -0.1156
    1W        W46915   3.398   8.268   7.594 -0.0346 -0.1742  0.1128
    1W        W46916  20.189   5.890   8.996  0.3026 -0.0825 -0.3434
    1W        W46917   4.115  27.471   7.187  0.0530 -0.1213  0.1121
    1W        W46918  18.602   7.560   8.604 -0.3806 -0.3134 -0.0291
    1W        W46919   8.411  10.868   0.772 -0.1061 -0.1649 -0.0559
    1W        W46920  14.228   1.661   2.741  0.0161  0.3738 -0.1622
    1W        W46921  16.686  20.870   8.471 -0.3806 -0.0479 -0.0942
    1W        W46922  26.387  26.334   1.566  0.1190  0.0257 -0.4712
    1W        W46923  15.902  19.736   7.310 -0.1991 -0.3084 -0.0398
    1W        W46924  13.201  23.178   2.286  0.2326 -0.0081  0.0033
    1W        W46925  22.553  28.946   0.685  0.4923  0.1089  0.1090
    1W        W46926  10.766   5.835   9.153  0.3065  0.1200 -0.0042
    1W        W46927  16.273  12.023   0.776  0.0651 -0.1451 -0.0318
    1W        W46928   7.819   7.331   8.108  0.1634 -0.1260 -0.0827
    1W        W46929   1.267   6.831   0.779  0.0189 -0.0156  0.0325
    1W        W46930  22.200   2.364   2.505  0.2416 -0.2237  0.0056
    1W        W46931   0.082   5.678   8.760 -0.1658 -0.2688  0.3437
    1W        W46932  18.119  23.301   0.737  0.0105  0.1057 -0.1269
    1W        W46933  18.305  24.370   8.719  0.3389  0.2662  0.0964
    1W        W46934   7.354  15.246   8.851 -0.1518  0.0010  0.0248
    1W        W46935  21.384  28.219   0.463 -0.2809 -0.1087 -0.0502
    1W        W46936  20.318  21.457   8.241  0.1628 -0.1308 -0.2803
    1W        W46937  28.259  25.812   7.455  0.2182 -0.1098 -0.0642
    1W        W46938   0.187   8.957   7.846  0.0417  0.0934 -0.2394
    1W        W46939  28.346  25.905   6.520 -0.1789 -0.2467  0.1453
    1W        W46940  12.484   6.380   1.873 -0.1119 -0.0818  0.1552
    1W        W46941  18.371  29.570   1.624 -0.0717 -0.0054  0.1469
    1W        W46942   0.192   0.895   7.167 -0.1169  0.2259 -0.1319
    1W        W46943  23.966  13.454   8.261  0.1107  0.1796 -0.1854
    1W        W46944   2.664  19.402   9.220  0.0542  0.5870  0.2976
    1W        W46945  11.570   7.288   3.798 -0.0057 -0.1357 -0.2379
    1W        W46946  25.418  22.109   7.384  0.1499  0.3494  0.2500
    1W        W46947  13.458  18.659   1.805 -0.2353  0.2359 -0.0839
    1W        W46948  13.886  22.850   7.094  0.2531 -0.2704 -0.0134
    1W        W46949  27.616  26.193   8.778  0.0473 -0.0009  0.0249
    1W        W46950  28.322   8.829   6.929  0.5972  0.2165  0.2311
    1W        W46951  21.599   5.687   7.712  0.3651 -0.1470 -0.0658
    1W        W46952  16.491   6.029   8.898 -0.0675  0.1004 -0.0265
    1W        W46953  29.110   6.961   1.795 -0.2419 -0.1824  0.2986
    1W        W46954   1.781   0.329   7.102 -0.2852  0.0179 -0.1131
    1W        W46955   6.605   9.532   7.721  0.2129  0.1232 -0.4134
    1W        W46956  27.641  10.088   7.937  0.0724 -0.1894  0.1058
    1W        W46957  25.793   4.286   8.087 -0.1650 -0.1562 -0.1498
    1W        W46958  28.791  20.382   6.556  0.3183  0.1276 -0.0594
    1W        W46959   9.029   2.210   1.339  0.1941  0.0993 -0.0654
    1W        W46960  13.520  30.083   3.734  0.0461 -0.3696  0.1921
    1W        W46961  11.997  19.861   1.649  0.0921  0.0478  0.2449
    1W        W46962   2.021  27.457   0.917  0.0324  0.0502 -0.1037
    1W        W46963  21.860   8.373   8.015 -0.0227  0.1742  0.3606
    1W        W46964  18.861  13.349   7.100  0.4513 -0.0327 -0.1524
    1W        W46965  27.163   9.969   6.553 -0.0195  0.1277 -0.1643
    1W        W46966  15.291   6.540   1.503 -0.1474 -0.2419  0.1194
    1W        W46967  25.386  20.765   0.939 -0.0862 -0.3290  0.1033
    1W        W46968  13.695   1.917   7.504  0.1942 -0.1956  0.1491
    1W        W46969  19.622  16.860   8.902  0.0666  0.3067  0.3769
    1W        W46970  21.776   3.777   3.307 -0.1936 -0.1554 -0.0770
    1W        W46971  15.621  26.954   1.368 -0.0810  0.1592  0.1529
    1W        W46972  28.220  20.054   1.580  0.1884 -0.0637 -0.1298
    1W        W46973   5.644  20.206   1.719  0.2357  0.0267  0.0471
    1W        W46974  11.770  26.465   1.380  0.0127 -0.1160 -0.2662
    1W        W46975   9.338   3.397   0.199 -0.1136  0.0267 -0.2378
    1W        W46976  10.720   6.670   8.259  0.1560 -0.1624 -0.2692
    1W        W46977   5.551  29.740   3.507  0.0876 -0.1434 -0.1360
    1W        W46978   0.649  24.866   0.405 -0.0108 -0.0483 -0.0161
    1W        W46979  16.144  15.423   9.368 -0.0928 -0.2810  0.0053
    1W        W46980  22.640  24.676   6.845  0.0415 -0.1366  0.1273
    1W        W46981  20.840   4.506   0.423 -0.0199 -0.1924 -0.2086
    1W        W46982  29.985  21.546   2.535  0.2531 -0.1745 -0.2756
    1W        W46983  12.201   8.158   2.552 -0.2092  0.0751  0.2062
    1W        W46984  13.332  26.856   0.679 -0.1780 -0.1178 -0.2159
    1W        W46985   7.338   9.250   7.071 -0.0847  0.0364 -0.1637
    1W        W46986  29.903  24.986   9.169  0.1807  0.1698  0.3775
    1W        W46987  27.201   9.756   1.941  0.1333  0.1333  0.0155
    1W        W46988  11.258   4.712   0.853 -0.0625  0.0289 -0.2074
    1W        W46989   7.063  17.710   1.653  0.1627  0.0564 -0.2311
    1W        W46990  10.845   6.118   7.217  0.3149  0.3147 -0.1231
    1W        W46991   4.157  22.521   8.263  0.1917  0.1820 -0.1800
    1W        W46992  26.779   1.543   1.876  0.0173  0.0586  0.1097
    1W        W46993   7.464  29.155   3.428  0.0526 -0.1862 -0.1904
    1W        W46994  27.610   5.843   7.233  0.3180 -0.1040 -0.1745
    1W        W46995  13.730   4.102   8.762  0.0226 -0.0064  0.0230
    1W        W46996  11.791  21.148   0.263 -0.1127 -0.0726  0.0270
    1W        W46997  29.933  26.929   1.287 -0.0004  0.1285  0.0650
    1W        W46998   7.248  17.963   8.902  0.2939  0.0288  0.0260
    1W        W46999   3.711  17.454   1.320  0.1497  0.1747 -0.1378
    1W        W47000   8.963  26.954   6.137  0.0707  0.1051  0.1293
    1W        W47001  21.286   3.123   7.428  0.1642  0.0550  0.2183
    1W        W47002  13.198  25.520   7.452  0.0332 -0.0427  0.1744
    1W        W47003  17.236  25.091   0.711  0.3519 -0.0159 -0.0825
    1W        W47004   0.121  27.416   0.767  0.2804  0.2483 -0.2207
    1W        W47005  17.986  13.457   8.248  0.1966  0.1361 -0.1120
    1W        W47006  22.039   6.881   9.066 -0.0791  0.1060  0.0398
    1W        W47007  25.225  13.260   7.910  0.2471  0.2704 -0.0140
    1W        W47008  15.838  15.713   2.038 -0.0444  0.0734 -0.0668
    1W        W47009  13.004  12.972   2.249  0.0904  0.0128 -0.0251
    1W        W47010   8.943  18.706   2.079  0.1773 -0.1021 -0.2870
    1W        W47011  29.242   1.763   2.203  0.3239  0.1996 -0.1448
    1W        W47012  13.861  10.800   7.782  0.2196 -0.0017 -0.1491
    1W        W47013  14.615  16.663   1.893  0.1910 -0.0702 -0.0842
    1W        W47014   3.401   7.204   1.096  0.0035  0.2691  0.0091
    1W        W47015  16.049  27.158   8.256 -0.1060 -0.0170  0.1695
    1W        W47016   2.851  12.295   6.272  0.0930  0.2652 -0.3672
    1W        W47017  12.380   7.737   8.314 -0.1518 -0.2329 -0.0980
    1W        W47018   8.994  22.044   0.320  0.2190 -0.1129  0.3739
    1W        W47019  29.112  21.144   6.621 -0.0143  0.1404  0.3498
    1W        W47020  20.701  19.386   8.249 -0.5217 -0.2069  0.0012
    1W        W47021   4.195  14.414   9.356  0.1812 -0.1049  0.0300
    1W        W47022  24.030   0.817   9.009  0.0164 -0.0300 -0.3186
    1W        W47023  21.146  29.504   1.844 -0.0492 -0.3058 -0.1254
    1W        W47024   9.768   2.179   8.052 -0.0009  0.3562  0.1116
    1W        W47025  24.764   8.293   0.046 -0.0020 -0.3255 -0.1410
    1W        W47026  16.603   6.317   0.046 -0.2035 -0.0371 -0.0283
    1W        W47027  27.174   2.092   8.735  0.2573  0.0123 -0.0650
    1W        W47028  28.549   7.264   8.782 -0.2250  0.2642 -0.0258
    1W        W47029  16.964  14.334   7.717  0.0049 -0.0192  0.0111
    1W        W47030   1.894  29.089   0.684 -0.0759  0.1285  0.1494
    1W        W47031   2.414  23.497   7.537  0.0701  0.2309  0.0561
    1W        W47032  26.102  22.241   8.388 -0.3381 -0.1819  0.2504
    1W        W47033  29.604  11.623   1.704  0.0908  0.2370  0.1105
    1W        W47034   7.839  16.695   2.297 -0.0785  0.1814  0.1703
    1W        W47035  26.352   5.202   8.511  0.1052 -0.4167 -0.0522
    1W        W47036  17.995  29.906   1.544 -0.1531 -0.3035  0.2335
    1W        W47037  29.200  28.700   7.957 -0.3038  0.0281 -0.0349
    1W        W47038  23.519   4.361   1.086  0.1114  0.0688 -0.2982
    1W        W47039  10.932  19.150   8.509  0.0024 -0.0127 -0.0272
    1W        W47040   2.848  28.772   8.883  0.2356  0.1973  0.3809
    1W        W47041   0.068  13.160   8.681 -0.0548 -0.1097  0.1127
    1W        W47042   6.695  16.470   0.328  0.0405 -0.1898  0.0230
    1W        W47043  21.775  15.943   6.771  0.0751  0.1832 -0.2312
    1W        W47044  11.816  28.508   8.994  0.1729  0.1366  0.1578
    1W        W47045  10.370   9.955   0.493 -0.0365  0.1512  0.0715
    1W        W47046   4.813   5.205   2.148  0.0050 -0.1661 -0.3371
    1W        W47047   1.078  27.618   0.763  0.1490 -0.1046  0.4069
    1W        W47048   0.041  22.315   8.140 -0.1849 -0.0205 -0.0071
    1W        W47049   9.080   3.379   7.619 -0.0311  0.0481 -0.0322
    1W        W47050  10.389  17.603   2.001  0.2591 -0.0373  0.1267
    1W        W47051  24.794  12.243   6.249 -0.0984  0.1507 -0.2240
    1W        W47052  26.841  22.026   6.981 -0.1482  0.1821 -0.4330
    1W        W47053  16.178  13.971   0.263  0.0418  0.1130  0.0445
    1W        W47054   5.769   9.766   2.716 -0.1496  0.1732 -0.1388
    1W        W47055  23.678  18.518   9.008 -0.1460  0.1723  0.2070
    1W        W47056  26.701   6.748   8.449 -0.0703 -0.0584  0.1609
    1W        W47057  25.050   8.010   1.174 -0.2136 -0.1321  0.1689
    1W        W47058   4.893  21.814   0.781 -0.0381 -0.1126  0.2340
    1W        W47059   8.755   2.004   8.370 -0.1360 -0.0513 -0.1476
    1W        W47060  17.007  12.738   7.597 -0.0121 -0.3330 -0.0181
    1W        W47061   3.179  27.803   0.341 -0.1768 -0.1405 -0.0266
    1W        W47062   0.417  17.032   1.116 -0.0290  0.0855  0.0077
    1W        W47063   1.093  20.979   8.876 -0.3432 -0.2178  0.1636
    1W        W47064   2.945  20.331   5.418  0.0118 -0.2619 -0.0632
    1W        W47065  13.364  15.076   8.179 -0.0255  0.1760 -0.2212
    1W        W47066  28.913   9.254   8.976 -0.1634  0.1605  0.0887
    1W        W47067   3.715   6.866   9.119 -0.2128 -0.1573  0.1081
    1W        W47068  29.018  28.774   1.099  0.0870 -0.3764  0.0059
    1W        W47069  16.539  27.043   8.382 -0.1929 -0.0602  0.0068
    1W        W47070  22.947   1.533   9.401 -0.3150  0.0163  0.1118
    1W        W47071  10.532   1.215   1.848  0.1513  0.2666  0.1424
    1W        W47072  20.483  13.583   8.309 -0.2704 -0.0805 -0.0590
    1W        W47073  25.475   2.993   7.766  0.1662  0.3385 -0.3113
    1W        W47074  15.928  23.750   1.767 -0.0208  0.1766  0.0544
    1W        W47075  21.436  26.464   9.009  0.0254 -0.0748  0.0721
    1W        W47076   0.926  26.897   9.309 -0.0049 -0.1139  0.2620
    1W        W47077  14.316  22.504   1.201 -0.0386 -0.0604  0.3135
    1W        W47078  19.405  17.115   7.521 -0.2098 -0.2121  0.1802
    1W        W47079   8.152   8.764   2.115  0.0527 -0.0652  0.1045
    1W        W47080   4.718  23.019   7.176  0.0995  0.1135 -0.1115
    1W        W47081   5.966  18.981   5.426  0.2970 -0.1193  0.3086
    1W        W47082  18.493   5.961   8.748 -0.3724  0.1462 -0.0975
    1W        W47083  20.475  22.439   9.115  0.0726  0.0209 -0.3134
    1W        W47084  26.340   5.846   8.027  0.2974 -0.0296 -0.0849
    1W        W47085  21.047   8.649   8.391  0.0406 -0.1735  0.2045
    1W        W47086  27.573  19.764   8.572 -0.1443  0.0276 -0.0768
    1W        W47087   0.986  11.540   1.573 -0.0799  0.1528  0.1037
    1W        W47088  10.168  27.347   7.930  0.1368  0.0004 -0.1048
    1W        W47089  27.064   1.064   1.720 -0.1141  0.1165 -0.2153
    1W        W47090  22.796  19.540   1.587 -0.1134  0.1469  0.1657
    1W        W47091  18.117   6.510   7.987  0.3507  0.0579 -0.0604
    1W        W47092   1.182   5.590   7.761 -0.1377 -0.1948 -0.0531
    1W        W47093  17.053  19.034   2.424 -0.1361  0.0785  0.0536
    1W        W47094  13.261   6.108   3.965 -0.3821  0.0485  0.1637
    1W        W47095   2.963  27.561   9.297 -0.0397 -0.0215 -0.1732
    1W        W47096  26.475   1.424   5.935  0.0350 -0.0103  0.0298
    1W        W47097  10.750   9.208   1.207 -0.1837 -0.2086  0.1186
    1W        W47098   1.403  11.506   0.694 -0.2787  0.0755 -0.0868
    1W        W47099   7.146  12.568   0.376 -0.0976 -0.0373  0.2535
    1W        W47100  12.491  18.210   8.657 -0.1318  0.0153  0.0185
    1W        W47101  30.016  14.973   5.484  0.0614  0.2923  0.2135
    1W        W47102  18.064  11.579   6.999 -0.1783 -0.0146  0.3195
    1W        W47103  15.722  27.446   0.633  0.0682 -0.1119 -0.2672
    1W        W47104  25.865  25.989   8.446  0.1600  0.0966  0.1168
    1W        W47105   3.616  12.395   0.005 -0.1075  0.2082  0.0408
    1W        W47106   7.636  26.106   0.418  0.1119 -0.2644 -0.1142
    1W        W47107   5.837  19.933   8.852 -0.3171 -0.3612 -0.1655
    1W        W47108   5.826  18.189   6.566 -0.1184 -0.0452 -0.0505
    1W        W47109  27.976   7.789   9.099 -0.0027  0.3574 -0.0080
    1W        W47110  23.720   7.362   8.651 -0.1556 -0.1692 -0.0798
    1W        W47111   0.568   7.200   8.071 -0.0874  0.0412  0.0075
    1W        W47112  17.476  14.826   0.965 -0.2682  0.0819  0.0706
    1W        W47113  22.747   6.047   2.920  0.1104 -0.0707 -0.0581
    1W        W47114  16.228  27.017   6.865 -0.3669  0.1155  0.1077
    1W        W47115   4.981  17.693   1.600 -0.1019  0.0475  0.2009
    1W        W47116  23.653  18.511   6.623  0.1628  0.1387 -0.0145
    1W        W47117  24.243  16.364   1.807 -0.1003 -0.2541  0.0186
    1W        W47118  28.153  10.283   6.792  0.1523 -0.0492  0.2300
    1W        W47119  27.782  19.827   1.337  0.3042  0.0517  0.0754
    1W        W47120   7.423  18.376   0.604 -0.0820 -0.2677 -0.1497
    1W        W47121  13.292  22.836   8.863  0.0425  0.3235  0.1126
    1W        W47122  27.770  14.929   5.967  0.1592 -0.2405  0.1777
    1W        W47123  22.561  18.483   1.696  0.0220  0.0342  0.1141
    1W        W47124   3.344   7.698   1.062  0.0181  0.0465 -0.1986
    1W        W47125  28.773  19.126   1.199 -0.2139  0.1351 -0.0868
    1W        W47126   3.608  10.800   8.302  0.4318  0.2024  0.4601
    1W        W47127  18.073  21.843   8.296  0.1046  0.0663 -0.1803
    1W        W47128  26.816   3.957   7.052 -0.1203  0.2993  0.0246
    1W        W47129  12.865   9.106   0.491  0.0345  0.1542  0.2045
    1W        W47130  27.840   8.711   6.906  0.1228  0.1972 -0.1650
    1W        W47131  25.454  25.864   1.666  0.4311 -0.0656 -0.3244
    1W        W47132  17.206  23.244   7.908 -0.2272 -0.3375  0.0112
    1W        W47133  11.847  15.547   7.435  0.1245  0.1070 -0.0473
    1W        W47134  28.003   0.300   7.398  0.1339  0.0823  0.1449
    1W        W47135  25.167  12.366   5.894 -0.0582 -0.1271 -0.2658
    1W        W47136  25.088  13.795   5.510  0.0029  0.2755  0.0220
    1W        W47137  29.783  28.707   8.194  0.0428  0.1423  0.2634
    1W        W47138  29.307  15.936   5.903  0.1753 -0.0507 -0.0204
    1W        W47139  15.088   8.505   8.148 -0.0351  0.0157 -0.2983
    1W        W47140   4.697  20.983   0.999  0.1989  0.0981  0.0337
    1W        W47141  12.912  19.535   1.361  0.3242  0.0244 -0.2293
    1W        W47142  16.610  10.885   7.955  0.0496 -0.0059  0.3981
    1W        W47143   3.115   8.114   7.241 -0.0396 -0.0743  0.4014
    1W        W47144  13.780  13.906   1.170 -0.0874 -0.1957 -0.0730
    1W        W47145  10.077  17.316   8.445  0.1517  0.0981  0.0716
    1W        W47146  20.363  19.281   7.518  0.2887  0.0232  0.0918
    1W        W47147  23.374   1.963   9.033 -0.1379  0.0656 -0.0205
    1W        W47148  19.243  12.742   8.129  0.1898  0.2298  0.1496
    1W        W47149   9.705   6.402   8.830  0.0064  0.2016  0.0428
    1W        W47150  17.774   2.588   2.997 -0.0756  0.2392 -0.2783
    1W        W47151  26.351  15.864   8.661 -0.2156  0.0781 -0.1783
    1W        W47152  10.140  19.828   7.176 -0.2609 -0.1279  0.1849
    1W        W47153  14.743   5.610   0.766  0.3246  0.2125 -0.1038
    1W        W47154  22.551   0.683   8.226  0.3456  0.1423 -0.1194
    1W        W47155   2.697   7.896   1.906 -0.1450 -0.2198 -0.1482
    1W        W47156  18.598  29.371   7.633 -0.0460 -0.0300  0.1633
    1W        W47157  28.328   0.205   0.679 -0.1590 -0.1102 -0.0914
    1W        W47158  24.120  24.435   6.963  0.1624  0.1147 -0.2286
    1W        W47159   9.620  19.935   8.027 -0.1008 -0.5135  0.0095
    1W        W47160  22.928  23.089   0.011  0.1577  0.1356 -0.2551
    1W        W47161  21.408  22.873   1.942  0.2758  0.0583 -0.1212
    1W        W47162   2.210  17.468   5.025 -0.0743 -0.2111  0.1310
    1W        W47163  15.357  14.481   1.375 -0.0768  0.3002  0.3942
    1W        W47164  30.056  17.858   6.188  0.2082  0.2402  0.1917
    1W        W47165  29.445  28.608   0.338 -0.0819 -0.1040  0.3375
    1W        W47166  20.754  26.262   7.881 -0.0784 -0.3387  0.1498
    1W        W47167   3.622   8.985   6.779 -0.0225  0.0142  0.1744
    1W        W47168   8.435  16.523   0.794  0.1354 -0.1583 -0.0388
    1W        W47169   5.783  23.933   0.002  0.0615  0.2894 -0.0926
    1W        W47170  28.376   9.725   0.568  0.4290  0.1181 -0.2799
    1W        W47171   9.299  20.123   1.304 -0.3131 -0.0553  0.1279
    1W        W47172   0.402  26.718   6.465 -0.1823 -0.2350  0.0956
    1W        W47173   0.111  28.871   7.728  0.0035 -0.0299  0.1581
    1W        W47174  29.923   2.904   0.944 -0.0592  0.0733  0.1282
    1W        W47175  15.461  23.095   8.669  0.2846 -0.0877  0.1147
    1W        W47176  16.695  24.282   8.577  0.0504  0.3074  0.1296
    1W        W47177  20.850  15.780   6.793 -0.1237 -0.0346 -0.0093
    1W        W47178  11.456  24.834   0.111  0.1019 -0.0514 -0.3719
    1W        W47179  23.561  11.952   7.412  0.3800  0.0534 -0.1220
    1W        W47180  15.200   1.062   7.967 -0.1957 -0.1992  0.0822
    1W        W47181  13.017  17.388   1.151 -0.1957  0.1541 -0.1179
    1W        W47182   4.128  26.071   1.309  0.1455 -0.0573 -0.1535
    1W        W47183   5.458  10.413   8.806 -0.1087 -0.0257  0.0507
    1W        W47184  28.547  23.908   1.581 -0.1067 -0.1163  0.0389
    1W        W47185  17.850  17.731   7.109  0.1260  0.4649 -0.0776
    1W        W47186   6.281  10.015   1.244  0.0499  0.0110  0.1349
    1W        W47187  27.680  21.789   1.633  0.2702 -0.3002  0.0857
    1W        W47188  25.487   0.015   2.795 -0.2608 -0.1638  0.0194
    1W        W47189  17.477  20.565   7.630  0.0068  0.1302  0.0932
    1W        W47190  22.490  19.815   8.813  0.1141 -0.3592 -0.1217
    1W        W47191   4.056  15.930   1.105 -0.0300 -0.1935 -0.2312
    1W        W47192   8.248   4.115   8.646 -0.1489  0.0139  0.0302
    1W        W47193  28.178  13.534   6.313 -0.2837 -0.1133  0.1064
    1W        W47194  10.879  15.154   7.893 -0.0750  0.1245 -0.1689
    1W        W47195  10.550  26.166   7.197 -0.0549  0.0217  0.0992
    1W        W47196  22.286  20.476   1.975  0.0536  0.1949  0.2088
    1W        W47197  28.901   7.456   5.672  0.0801 -0.2672 -0.1618
    1W        W47198  13.665  21.414   7.242  0.2721  0.1710  0.2078
    1W        W47199   7.728   9.731   0.742  0.0794  0.0332 -0.2074
    1W        W47200  10.115  24.307   0.620  0.1600  0.1733  0.0124
    1W        W47201   9.826  29.204   1.253 -0.1821  0.1905  0.0680
    1W        W47202  26.731   8.008   0.255  0.0468 -0.2493  0.2003
    1W        W47203  15.923  24.384   7.007  0.1370  0.1463  0.0521
    1W        W47204  14.097  28.814   0.506  0.1440 -0.2602 -0.5321
    1W        W47205  15.898  16.051   1.664  0.2719 -0.1527  0.1425
    1W        W47206  10.931  10.179   7.356 -0.3508  0.1122 -0.1431
    1W        W47207   9.376  26.431   0.694  0.1888  0.1429  0.2050
    1W        W47208   3.604  26.349   8.395 -0.0996 -0.0141  0.0499
    1W        W47209  25.872   9.880   0.491 -0.1505  0.1131 -0.0248
    1W        W47210  15.227  29.216   8.038 -0.1515 -0.0413 -0.3286
    1W        W47211  19.493  28.599   9.381  0.3033 -0.0114 -0.0903
    1W        W47212   2.193  11.391   0.467 -0.2144  0.2416 -0.2953
    1W        W47213   3.356  13.934   8.814 -0.1015  0.0333  0.2220
    1W        W47214  29.933   4.943   7.471 -0.1026  0.0263 -0.0788
    1W        W47215   4.264   1.802   8.393  0.0642 -0.1672  0.1351
    1W        W47216  25.388  12.068   1.154 -0.3863  0.0466  0.1220
    1W        W47217  21.247  27.621   6.214  0.2896 -0.0661 -0.0249
    1W        W47218  18.637  15.654   7.369 -0.0985 -0.0862  0.3334
    1W        W47219   1.549  24.633   0.812 -0.4356 -0.0525  0.1602
    1W        W47220  20.233  24.774   2.761 -0.0072  0.1970 -0.0373
    1W        W47221  11.251   0.781   0.405 -0.1927  0.0403 -0.0224
    1W        W47222  28.525  14.256   8.126 -0.0190  0.2529 -0.0063
    1W        W47223  28.076  23.134   1.865 -0.0449  0.3163  0.2380
    1W        W47224  14.626   1.221   3.325 -0.0654  0.0470  0.0890
    1W        W47225  13.036  22.205   0.688  0.0966 -0.2636  0.0621
    1W        W47226  11.227  28.683   0.464 -0.2125 -0.2361 -0.0819
    1W        W47227  13.511   7.408   3.542  0.5207  0.1809  0.2156
    1W        W47228  10.069  22.007   6.745 -0.0045  0.0449 -0.0081
    1W        W47229   0.605  30.087   1.173  0.0929  0.0550  0.0402
    1W        W47230  16.448   9.240   0.574 -0.2321  0.2250 -0.0660
    1W        W47231  26.272   7.229   9.109 -0.0480 -0.0195 -0.1676
    1W        W47232  12.918  27.670   2.984  0.0172 -0.1135 -0.0521
    1W        W47233  22.589  17.637   1.631 -0.2522 -0.2596 -0.2703
    1W        W47234   2.268  23.295   1.066 -0.0985  0.1151 -0.0882
    1W        W47235   7.649  28.954   3.014  0.0353 -0.0740  0.0689
    1W        W47236   5.191   3.540   0.619 -0.2157  0.0182  0.0970
    1W        W47237  22.708  25.184   0.769 -0.0856 -0.0423  0.2301
    1W        W47238  22.512  22.635   8.691 -0.0531 -0.1257 -0.0612
    1W        W47239  19.218  13.020   7.211  0.1673 -0.0169 -0.1560
    1W        W47240   6.555  18.618   7.109  0.0065 -0.1816  0.0211
    1W        W47241  16.745   8.108   3.307  0.2178 -0.4475  0.1532
    1W        W47242  19.226   4.681   8.965 -0.3106  0.0338  0.2013
    1W        W47243  11.044  23.174   7.943  0.0966 -0.3986 -0.0238
    1W        W47244  26.221   1.002   1.648  0.3592  0.2149 -0.1870
    1W        W47245   1.656  26.477   2.895 -0.2915 -0.0575 -0.1271
    1W        W47246   7.518  19.099   2.106 -0.0895 -0.1633  0.2104
    1W        W47247  10.299  13.722   2.780 -0.0717  0.2347  0.0442
    1W        W47248   1.740   3.582   7.446  0.0802  0.2998 -0.0840
    1W        W47249   9.639  25.650   0.314 -0.0411  0.2179  0.0314
    1W        W47250   4.438  13.931   0.547  0.2700 -0.1570 -0.1123
    1W        W47251  25.917   2.324   2.453  0.1631  0.1572  0.0458
    1W        W47252  14.286  23.119   1.724  0.1114 -0.0739 -0.3399
    1W        W47253  22.724  13.042   6.721 -0.0856 -0.0324  0.2703
    1W        W47254   4.295  11.726   9.309  0.0178  0.0558  0.0697
    1W        W47255  27.807   7.328   9.394 -0.0533 -0.1475 -0.0666
    1W        W47256  26.272  12.463   0.236 -0.0429 -0.2726  0.1567
    1W        W47257   5.242  18.486   6.526 -0.1967  0.1791 -0.0821
    1W        W47258  19.084   2.542   7.072  0.5350 -0.0738 -0.2214
    1W        W47259  23.711   5.831   2.084  0.1150  0.1596  0.1167
    1W        W47260   1.678   4.305   8.178  0.2069  0.0695  0.1998
    1W        W47261  26.944   2.950   7.212  0.0385  0.2814  0.1512
    1W        W47262  12.801   2.710   2.967 -0.1430  0.3305 -0.0239
    1W        W47263   3.199  15.728   1.697 -0.2127  0.0854  0.1875
    1W        W47264  15.697   9.541   0.545  0.0333  0.0774 -0.1118
    1W        W47265  13.299   8.005   8.073 -0.3446 -0.1074  0.0124
    1W        W47266   2.015  17.705   7.691 -0.1742  0.1425 -0.1576
    1W        W47267  11.586   9.953   2.956 -0.1234  0.0032  0.0001
    1W        W47268  26.807  17.921   1.268 -0.0507 -0.0458 -0.0183
    1W        W47269   1.997   3.820   1.808 -0.1591 -0.0858  0.0629
    1W        W47270  19.420   7.375   9.299  0.1095  0.0283  0.3702
    1W        W47271  19.349  19.117   7.173 -0.0775  0.0230  0.3050
    1W        W47272  11.883   9.058   2.601  0.2714  0.2400  0.1976
    1W        W47273   1.035  15.465   0.677 -0.1574 -0.3215 -0.1697
    1W        W47274  25.709   6.010   1.676 -0.0600  0.1327  0.1789
    1W        W47275  21.254  25.188   0.965  0.0873 -0.0847 -0.0023
    1W        W47276   5.693  13.009   7.897  0.5155  0.2203  0.1703
    1W        W47277  11.441  27.174   8.165  0.1728  0.0063 -0.1058
    1W        W47278  25.539  15.807   5.728 -0.3175  0.2451  0.2366
    1W        W47279   0.003  19.114   8.901  0.3457  0.1577  0.1064
    1W        W47280  11.688  13.888   8.209 -0.1368 -0.0387 -0.0298
    1W        W47281  11.857  16.372   2.568 -0.1197 -0.0185 -0.0386
    1W        W47282   6.987  23.385   6.062 -0.0951  0.1153 -0.2613
    1W        W47283  22.511   2.479   2.133  0.2310 -0.1821  0.0464
    1W        W47284  21.642  19.664   5.496 -0.1595 -0.1095  0.0595
    1W        W47285   9.497   7.738   0.417  0.2287 -0.0137  0.3283
    1W        W47286  14.644  15.041   1.382  0.1308  0.2435 -0.3246
    1W        W47287  20.255   5.302   0.612 -0.1929  0.0582  0.1089
    1W        W47288  20.808  28.412   2.808  0.2350 -0.1372 -0.3916
    1W        W47289   5.342   8.427   1.603 -0.0705 -0.2622 -0.0415
    1W        W47290   9.448  25.324   6.584  0.3340  0.1748 -0.2662
    1W        W47291  22.920  11.679   8.629 -0.1067 -0.0139  0.0733
    1W        W47292  25.688  23.529   8.124 -0.1890  0.0635  0.0478
    1W        W47293  21.159  25.460   1.631 -0.3065  0.0852  0.0179
    1W        W47294  26.438   8.819   8.587  0.2177 -0.0733  0.0496
    1W        W47295  11.677  29.799   2.756  0.0342  0.0562 -0.0939
    1W        W47296   8.743   7.777   7.494 -0.3271  0.1091 -0.4415
    1W        W47297   9.261  25.812   8.532 -0.1069 -0.1228 -0.0716
    1W        W47298  29.545   8.837   0.043  0.0895 -0.2643 -0.2424
    1W        W47299  27.281   9.334   8.546 -0.0842 -0.1909  0.0661
    1W        W47300   3.572  29.411   1.025 -0.1769  0.0092 -0.0883
    1W        W47301  14.311  28.834   1.314  0.0438 -0.2490  0.0627
    1W        W47302  19.438   9.130   1.208 -0.4030  0.1278 -0.3853
    1W        W47303  24.249  12.972   8.146 -0.0107  0.0633  0.1246
    1W        W47304  23.163   0.457   0.570  0.0547 -0.0325 -0.2599
    1W        W47305  21.809  26.087   3.059 -0.2798  0.0772 -0.0078
    1W        W47306   7.478   9.020   1.020  0.0483  0.0871 -0.1882
    1W        W47307  27.199  13.693   9.382 -0.1651  0.3027 -0.1458
    1W        W47308  25.699  20.109   7.482  0.2811 -0.1947 -0.2540
    1W        W47309  27.336   4.878   7.320  0.0108 -0.0244 -0.1061
    1W        W47310  28.584   7.703   7.344  0.1111  0.1148 -0.1327
    1W        W47311   0.593   0.841   8.311 -0.0421 -0.0585 -0.3280
    1W        W47312  23.200   9.859   1.620  0.0927 -0.1020 -0.0707
    1W        W47313  23.748  19.186   5.861  0.5786 -0.1425 -0.1075
    1W        W47314   9.489  11.990   3.545  0.0869 -0.1497 -0.1322
    1W        W47315  18.160   9.569   1.499 -0.1249 -0.0130 -0.1118
    1W        W47316  17.331  29.399   2.714  0.0457 -0.0546  0.3038
    1W        W47317   0.984  22.716   0.425  0.0493  0.2335 -0.2128
    1W        W47318   7.390  12.571   7.256  0.3308  0.0372  0.3332
    1W        W47319  29.675  26.593   6.452  0.1366  0.2784  0.1166
    1W        W47320  20.087   3.245   8.592 -0.0491  0.1502 -0.0217
    1W        W47321  12.246  14.274   1.370  0.1331  0.1144 -0.0542
    1W        W47322  26.572  22.353   0.724 -0.0863  0.2247 -0.4043
    1W        W47323  20.309  21.346   6.793  0.0762  0.1396  0.1295
    1W        W47324  14.912  20.129   8.376 -0.2303 -0.4226 -0.0658
    1W        W47325   2.467   9.746   1.055 -0.3204 -0.0330 -0.4593
    1W        W47326   7.770   8.367   3.400 -0.4376  0.0933  0.0871
    1W        W47327   0.493  19.245   5.486 -0.0630 -0.1414  0.0033
    1W        W47328  12.374  19.811   7.287  0.3360 -0.3188  0.1354
    1W        W47329   9.160   3.374   8.827 -0.0446  0.3558 -0.3706
    1W        W47330   9.893  29.596   0.922 -0.1867  0.0476 -0.2237
    1W        W47331  27.798  18.378   0.522  0.2468  0.3331 -0.1633
    1W        W47332  12.328  26.813   2.117 -0.1014  0.3246  0.0449
    1W        W47333  13.871   9.294   8.336 -0.0205 -0.0248 -0.1412
    1W        W47334  14.000  11.248   7.982  0.0820 -0.5193  0.0120
    1W        W47335  11.561   5.413   8.873  0.1351 -0.2179  0.1508
    1W        W47336  24.041  24.217   1.756  0.0016 -0.0110  0.1530
    1W        W47337  23.063  11.824   0.218  0.1137  0.1334  0.0768
    1W        W47338  21.107  10.322   7.324  0.1822  0.2555  0.2055
    1W        W47339   6.851   3.891   7.584 -0.1972 -0.1631 -0.1653
    1W        W47340  20.952  29.949   0.571  0.3388  0.1892  0.1248
    1W        W47341  26.198  29.146   0.246  0.0593 -0.0312 -0.0044
    1W        W47342  10.309  11.928   8.266  0.0224  0.0362 -0.1330
    1W        W47343  22.655  16.749   1.109  0.2870  0.1312 -0.0275
    1W        W47344  28.303   2.974   2.295  0.0693 -0.1184 -0.2759
    1W        W47345  21.375  16.633   6.547  0.1921  0.2892  0.0967
    1W        W47346   9.330  13.465   8.532 -0.0054  0.1404  0.1151
    1W        W47347   5.678   6.705   1.962  0.1674 -0.2108 -0.0410
    1W        W47348   8.852   2.581   7.603 -0.0488  0.0133  0.1829
    1W        W47349  19.037  27.105   1.886 -0.1239  0.2649 -0.1561
    1W        W47350  28.581  26.309   8.957 -0.1911  0.3688 -0.2034
    1W        W47351  30.068   7.706   9.229 -0.0901 -0.2624 -0.0466
    1W        W47352   5.623  12.844   1.892  0.0888  0.0419  0.2540
    1W        W47353  23.212  17.379   7.857 -0.0881  0.0465  0.0723
    1W        W47354  22.242  23.900   8.813 -0.2461  0.1197 -0.1571
    1W        W47355  20.985  22.478   0.218 -0.0848 -0.0088 -0.0312
    1W        W47356   6.587  11.379   2.247  0.0479 -0.0622 -0.2016
    1W        W47357  27.057  25.777   2.104  0.0385  0.2123  0.0428
    1W        W47358  20.622   4.035   2.282 -0.0123  0.0367  0.0624
    1W        W47359  13.855  27.735   7.220  0.1035  0.0757  0.2291
    1W        W47360  15.562  13.226   7.976 -0.3182  0.0261  0.0629
    1W        W47361   0.291  29.048   1.445 -0.0104  0.1304 -0.0104
    1W        W47362  11.226   9.340   2.234 -0.0125 -0.0150  0.0362
    1W        W47363  22.241   0.334   7.434 -0.2294 -0.3295  0.2492
    1W        W47364  10.400  29.967   2.222 -0.2955 -0.0226 -0.1454
    1W        W47365  21.356  29.028   2.376  0.1811  0.0097 -0.3138
    1W        W47366   5.510  18.227   0.892  0.2147 -0.1922 -0.0182
    1W        W47367  17.241  29.731   7.543 -0.0540 -0.2432 -0.0266
    1W        W47368  16.792  27.972   0.584 -0.3953  0.0017 -0.1409
    1W        W47369   9.533  18.834   7.050 -0.4183 -0.1867 -0.1888
    1W        W47370   1.801  11.941   7.894  0.2922  0.0596 -0.1083
    1W        W47371  11.859  16.231   9.229  0.1903  0.0324 -0.0640
    1W        W47372  11.875  11.698   9.279  0.1632  0.1014 -0.0059
    1W        W47373   0.303   7.517   8.913 -0.0713  0.1248  0.0252
    1W        W47374  23.213   3.459   6.430 -0.2774  0.0298  0.4554
    1W        W47375  13.520   4.033   2.932 -0.1703  0.1733  0.0703
    1W        W47376  13.711  18.737   8.712  0.0893 -0.2682  0.0127
    1W        W47377  20.144   2.365   6.441  0.1525  0.4738 -0.3166
    1W        W47378  23.722   5.046   0.054 -0.2852 -0.2006  0.3039
    1W        W47379  29.993   8.174   1.627 -0.2254  0.2414 -0.1165
    1W        W47380   6.113  24.890   1.331 -0.1245  0.0056 -0.3342
    1W        W47381   0.293   0.361   1.205 -0.0509 -0.0204 -0.0044
    1W        W47382  19.422  24.529   9.063 -0.0828  0.3312 -0.0589
    1W        W47383  20.678   0.340   6.625 -0.1257 -0.2009 -0.0618
    1W        W47384  23.700  29.423   7.669  0.2454 -0.3806  0.2362
    1W        W47385   6.946   9.688   8.112  0.1202  0.0583  0.1638
    1W        W47386   2.897  10.516   6.704 -0.0778  0.0201 -0.0333
    1W        W47387   6.726   7.142   1.829  0.1232  0.0103  0.0343
    1W        W47388  29.623   3.916   2.165 -0.0817  0.0581 -0.2789
    1W        W47389  10.638  24.081   8.094 -0.1059  0.2097  0.0920
    1W        W47390  29.931  22.063   5.453  0.0955 -0.0784  0.2017
    1W        W47391  17.181   8.962   8.785 -0.1136 -0.1530  0.0538
    1W        W47392   9.884  17.337   7.238  0.0657  0.0105  0.0936
    1W        W47393  17.240   3.857   7.539 -0.0317 -0.0756 -0.1215
    1W        W47394  28.548  27.085   2.145 -0.3237  0.4209 -0.2920
    1W        W47395  20.227  13.600   9.337  0.0909 -0.1207 -0.1386
    1W        W47396  28.243  21.076   5.572  0.2610 -0.2385  0.0456
    1W        W47397   9.521   2.664   2.184  0.2090  0.1360 -0.0035
    1W        W47398  18.780  23.125   0.767  0.0612  0.0343  0.0117
    1W        W47399   6.126  16.595   8.896 -0.2277 -0.0637  0.0270
    1W        W47400  19.755   7.687   9.005 -0.0191 -0.0976 -0.0561
    1W        W47401  24.078   2.913   0.991 -0.2013  0.2378  0.4036
    1W        W47402  24.721   2.515   8.057 -0.0548  0.1299  0.0975
    1W        W47403  28.115  14.111   0.901 -0.0749 -0.2365 -0.2261
    1W        W47404   1.654  15.747   0.650  0.1038 -0.0843 -0.1090
    1W        W47405  10.577   1.716   2.189  0.2740  0.1244 -0.0875
    1W        W47406  19.187  11.970   0.203 -0.2746 -0.0122 -0.1354
    1W        W47407   3.134   9.863   2.276  0.0518  0.2091  0.2168
    1W        W47408  16.157   0.820   7.517  0.1573  0.1712  0.0564
    1W        W47409  16.257  24.126   7.793  0.0417 -0.0539  0.0530
    1W        W47410   8.445  13.740   7.943 -0.1629  0.2060 -0.2429
    1W        W47411  29.912   2.345   8.059  0.2350  0.1992 -0.1653
    1W        W47412   0.592  28.430   0.408 -0.0233  0.0352 -0.1197
    1W        W47413  26.255  24.046   0.655  0.0470 -0.1938  0.1751
    1W        W47414  25.888   9.047   7.008 -0.0203  0.0549 -0.0969
    1W        W47415   3.023   6.885   0.915  0.0077 -0.0721  0.0985
    1W        W47416   5.170  27.869   1.270  0.0068 -0.0194 -0.1727
    1W        W47417  18.499   8.215   1.719  0.1874  0.1241  0.0893
    1W        W47418   6.858  28.375   0.873 -0.2709  0.4686  0.0665
    1W        W47419  29.093  28.048   8.042  0.2318  0.0063 -0.0986
    1W        W47420   2.708   5.607   2.948  0.1116 -0.0573  0.0560
    1W        W47421  13.197  15.811   0.351  0.0741  0.1464 -0.0416
    1W        W47422  22.171   1.116   7.607  0.1893 -0.0883 -0.0183
    1W        W47423  11.861   9.957   2.544 -0.1197 -0.0134  0.2179
    1W        W47424  24.746   6.009   7.872  0.1158  0.5836  0.1772
    1W        W47425   2.152  29.668   8.614 -0.1018  0.0351  0.0640
    1W        W47426   8.892  22.192   9.212 -0.1850 -0.0897 -0.0556
    1W        W47427  28.532   5.825   6.717 -0.0880 -0.1118  0.0276
    1W        W47428   0.163   9.443   7.624  0.0452  0.3191  0.2454
    1W        W47429   5.755  10.975   2.730 -0.3452  0.0440  0.3139
    1W        W47430  19.445   0.878   8.395  0.0268 -0.3448 -0.1118
    1W        W47431  24.459  12.515   7.192 -0.0367 -0.3254 -0.1226
    1W        W47432   2.167  10.949   1.857 -0.3927 -0.0800 -0.0142
    1W        W47433  15.988   0.663   8.488 -0.0532  0.3652  0.1704
    1W        W47434  20.536  15.986   8.229  0.1537  0.1181  0.1994
    1W        W47435   6.288  24.787   6.330  0.0384 -0.0559 -0.0663
    1W        W47436  15.394  28.109   0.518 -0.1810 -0.0127  0.0239
    1W        W47437  17.531  13.847   0.072  0.4473  0.2064 -0.2213
    1W        W47438  11.454  19.537   7.755  0.2847 -0.1969 -0.1026
    1W        W47439  18.997  21.749   6.959  0.0853  0.0168  0.2301
    1W        W47440   4.220   0.992   0.317  0.1278  0.0961  0.1800
    1W        W47441   3.712   3.579   2.079  0.1687  0.0005  0.0014
    1W        W47442  11.069  11.609   1.185 -0.1816 -0.2531  0.0862
    1W        W47443  25.566  29.818   3.236  0.5599 -0.0373 -0.0067
    1W        W47444  21.741   8.480   8.503 -0.0231 -0.3402  0.2867
    1W        W47445  23.551   5.808   3.070 -0.2190 -0.0243 -0.2894
    1W        W47446  21.497  28.149   8.928 -0.2250  0.1245  0.1098
    1W        W47447  26.205  15.064   9.403  0.2105 -0.1996 -0.1668
    1W        W47448  21.580   7.785   1.425  0.0165  0.0922  0.2494
    1W        W47449   0.816   0.360   1.187 -0.1870 -0.0279 -0.0353
    1W        W47450  10.663  18.456   7.031 -0.0414 -0.1216  0.1590
    1W        W47451  23.686   4.599   1.519 -0.3242  0.1910 -0.0395
    1W        W47452  14.947  28.322   0.167  0.1992 -0.2192 -0.0128
    1W        W47453  23.849  18.186   1.600  0.3020  0.0242 -0.2475
    1W        W47454   5.892  10.655   7.680  0.1790 -0.2772 -0.2491
    1W        W47455  25.638   6.366   2.201 -0.0679  0.0932 -0.2518
    1W        W47456  29.445   1.670   7.672 -0.0027  0.2471  0.0546
    1W        W47457  26.023   1.429   9.118 -0.1742  0.0679 -0.3795
    1W        W47458   9.020   7.121   7.140 -0.0331 -0.0344 -0.0473
    1W        W47459  29.502   0.195   0.616  0.0253  0.0216 -0.1417
    1W        W47460   2.615  23.135   8.535 -0.0296 -0.0830 -0.0407
    1W        W47461  22.958  13.564   2.560 -0.2785 -0.0078  0.1330
    1W        W47462  23.857  14.387   6.267 -0.0532 -0.0155 -0.3150
    1W        W47463  15.013   9.058   2.405 -0.0117  0.0536 -0.1303
    1W        W47464  20.375  28.957   7.747 -0.1973  0.3524 -0.0693
    1W        W47465  17.371  13.031   1.089  0.1119 -0.1750  0.2264
    1W        W47466  18.532  25.808   7.073  0.0151 -0.1731 -0.2012
    1W        W47467  10.156   2.865   1.517 -0.1063  0.0919 -0.0031
    1W        W47468   8.584  23.177   1.297  0.0135  0.0881 -0.3283
    1W        W47469  21.763   9.211   8.832 -0.0014 -0.1427 -0.0516
    1W        W47470  12.206  23.627   9.292  0.2617  0.1490  0.0982
    1W        W47471   8.249  17.041   0.999  0.0977  0.0233 -0.0663
    1W        W47472  25.295   2.838   6.496 -0.1056 -0.1150  0.0496
    1W        W47473  21.123  29.301   2.723  0.1448  0.0659  0.0256
    1W        W47474  27.829   4.680   8.203  0.1120 -0.0495  0.0894
    1W        W47475   9.119  20.447   8.093 -0.0580 -0.2193  0.0951
    1W        W47476  27.983   8.754   8.844  0.3623 -0.0178  0.1747
    1W        W47477  20.268  14.713   1.848  0.1801  0.0265  0.1810
    1W        W47478  13.987  23.454   9.171  0.3519 -0.1501 -0.2857
    1W        W47479  24.229  29.644   8.812  0.2025  0.2110  0.3261
    1W        W47480  19.515  20.998   6.773 -0.0983  0.1255 -0.0690
    1W        W47481  21.354  16.101   6.639 -0.1441  0.0435  0.0835
    1W        W47482  24.689   7.331   0.109 -0.3576 -0.5397 -0.1367
    1W        W47483  20.197  10.413   0.405 -0.3259 -0.1589 -0.2768
    1W        W47484  28.082  28.769   0.120 -0.3975 -0.1237 -0.0476
    1W        W47485  14.773  22.534   7.116 -0.1378 -0.0897  0.2135
    1W        W47486  10.019  13.538   0.208  0.0725  0.2109 -0.1459
    1W        W47487  23.692  27.352   8.246  0.1584 -0.0506 -0.0671
    1W        W47488  25.536  27.415   1.478  0.2946  0.0097 -0.4363
    1W        W47489  29.440  14.758   6.715 -0.0802 -0.1249  0.3096
    1W        W47490  14.220  27.306   2.292  0.0247 -0.0642  0.0007
    1W        W47491  15.381  21.781   8.453  0.1936  0.0258 -0.2380
    1W        W47492   9.648   5.404   1.888 -0.2448 -0.0988 -0.0942
    1W        W47493  24.292  19.625   8.678  0.0592  0.3124 -0.3819
    1W        W47494  15.913  14.298   9.153 -0.1462 -0.1148  0.0972
    1W        W47495  24.613  26.802   8.947  0.4434 -0.2521  0.1397
    1W        W47496   6.193   2.457   2.526 -0.1288 -0.1710  0.1055
    1W        W47497  14.159   8.674   9.336 -0.2668 -0.1677 -0.0539
    1W        W47498  22.028  16.164   8.650  0.0444  0.1065 -0.1480
    1W        W47499  24.591   7.980   0.909 -0.0506 -0.2790  0.1684
    1W        W47500   7.392  20.142   0.304  0.0388 -0.0988 -0.2480
    1W        W47501  26.608   4.692   1.475 -0.2594 -0.0852 -0.1601
    1W        W47502   1.458  19.216   5.419 -0.2360 -0.0219 -0.2643
    1W        W47503  28.460   3.733   0.811  0.2994 -0.1458  0.1019
    1W        W47504  26.035  21.059   7.905 -0.1419  0.2961  0.0223
    1W        W47505   7.457   5.325   3.049  0.2181 -0.2668 -0.2714
    1W        W47506  26.555   1.313   0.342 -0.1167  0.4310  0.3522
    1W        W47507  27.200  16.994   9.082  0.0054 -0.0773 -0.1773
    1W        W47508   5.123  19.020   5.577 -0.2708  0.1095 -0.2359
    1W        W47509  24.175   4.036   7.218  0.1935 -0.0024  0.1668
    1W        W47510  24.374  25.526   7.505  0.0297 -0.1292  0.0871
    1W        W47511  13.234  20.963   3.113 -0.1569  0.0802  0.0262
    1W        W47512   3.895   3.208   2.755  0.0887 -0.2007 -0.0738
    1W        W47513   0.063   8.781   6.972  0.1125 -0.0193  0.3078
    1W        W47514   7.236   1.335   2.562  0.0332  0.0040  0.1346
    1W        W47515  11.617   9.508   2.484  0.0048  0.1391 -0.2738
    1W        W47516   5.339  15.599   0.094  0.1035  0.0127 -0.0394
    1W        W47517  23.241   6.357   8.853  0.2463 -0.4350 -0.0747
    1W        W47518  21.254  21.038   0.000  0.2312 -0.1497  0.2014
    1W        W47519  26.491  14.845   6.794 -0.1320  0.1172  0.1573
    1W        W47520   5.334   4.430   0.334  0.0300 -0.0383  0.3183
    1W        W47521   2.388   2.528   7.636  0.0767  0.0926 -0.2054
    1W        W47522  26.095  19.357   6.607  0.0481  0.2603 -0.2454
    1W        W47523  24.237  24.637   8.077 -0.0253  0.0307 -0.2737
    1W        W47524   5.377  21.009   9.275 -0.1847  0.0342 -0.0207
    1W        W47525  24.248  14.324   1.514 -0.1098  0.0461  0.1720
    1W        W47526   8.850   4.905   1.799  0.0014  0.1520  0.2190
    1W        W47527  24.954  12.741   0.635  0.2747  0.2290  0.1458
    1W        W47528   2.886  23.274   6.408  0.1600  0.0272 -0.1188
    1W        W47529  25.067  19.643   5.936  0.1514 -0.1143  0.1614
    1W        W47530  19.801   7.093   2.550 -0.0794  0.2697 -0.0508
    1W        W47531  24.277  26.174   0.202  0.2661  0.2778  0.0834
    1W        W47532  28.493  10.813   8.499  0.0706 -0.1653  0.1262
    1W        W47533  16.361  28.382   7.770 -0.2173  0.1200  0.0845
    1W        W47534  12.478  26.940   7.220 -0.1231 -0.0985 -0.2816
    1W        W47535  28.143  19.993   1.071  0.2750  0.0263 -0.0494
    1W        W47536   0.797  21.375   7.267  0.1882 -0.0560 -0.3321
    1W        W47537  13.120   1.670   3.134  0.1286 -0.2902  0.0213
    1W        W47538   4.259  13.369   2.188  0.0989 -0.0321  0.1250
    1W        W47539  16.086  10.015   9.032  0.0819 -0.0266 -0.3200
    1W        W47540  20.912   5.465   3.130 -0.1593 -0.0007  0.2848
    1W        W47541   6.592  21.679   8.023 -0.3310  0.2029  0.1426
    1W        W47542  22.785  19.038   1.135  0.3296 -0.0296 -0.0461
    1W        W47543  25.951  23.849   9.308  0.1081 -0.0400 -0.0675
    1W        W47544   1.368   0.734   7.990 -0.2915  0.1629  0.1369
    1W        W47545  14.781  13.391   1.365  0.1418 -0.0536  0.0942
    1W        W47546  22.577  25.333   1.248 -0.1241  0.1176 -0.5476
    1W        W47547   3.947  24.118   1.286 -0.4772 -0.2032 -0.0119
    1W        W47548   3.064  10.495   6.169  0.0070 -0.0446  0.2600
    1W        W47549  18.365   2.648   0.431  0.1663 -0.1491 -0.1161
    1W        W47550   1.170  23.774   7.793  0.0551 -0.3115  0.0142
    1W        W47551  24.340  20.931   8.234  0.0368  0.3779  0.2885
    1W        W47552   2.280  29.405   9.372 -0.1979  0.0563  0.0679
    1W        W47553  10.035   8.621   8.460  0.1697 -0.0827 -0.0221
    1W        W47554  29.701   3.466   7.965 -0.3857 -0.3128  0.0540
    1W        W47555  13.426  18.586   9.077  0.3468 -0.2354 -0.0539
    1W        W47556  16.815   4.235   2.214 -0.2376 -0.1047 -0.2737
    1W        W47557  21.741   1.334   1.504  0.1829  0.1450  0.0053
    1W        W47558  10.113  25.503   7.344 -0.4090  0.1668  0.0073
    1W        W47559   0.778  16.725   1.348  0.0687 -0.2332 -0.0691
    1W        W47560   5.011  29.485   4.290  0.0503  0.1312 -0.0583
    1W        W47561   8.668  16.732   0.345 -0.0919 -0.0157  0.0185
    1W        W47562  27.988   0.419   6.609 -0.0504 -0.1036 -0.2477
    1W        W47563   4.797   0.477   1.336 -0.0920 -0.1602 -0.1753
    1W        W47564  19.017   8.110   2.731 -0.2902  0.2084  0.1036
    1W        W47565  20.366   6.273   8.675 -0.1550  0.0527 -0.3083
    1W        W47566   3.477  18.921   0.290  0.2240 -0.1455 -0.1401
    1W        W47567  16.137   4.352   8.317  0.0670 -0.0751  0.1192
    1W        W47568   6.056  13.498   7.462 -0.3037  0.2939 -0.1484
    1W        W47569  25.035   6.813   1.518 -0.1610  0.0677  0.1540
    1W        W47570  12.692  19.173   7.246 -0.1288  0.0638  0.4784
    1W        W47571  23.320  14.353   1.173 -0.0285  0.3303 -0.0031
    1W        W47572  24.235  26.347   9.063  0.0309  0.2815 -0.1844
    1W        W47573  23.209  11.620   1.366  0.0770  0.1501  0.1454
    1W        W47574   9.486   9.893   3.297  0.2337  0.0915  0.0798
    1W        W47575  22.755  21.775   7.760 -0.1041  0.0941 -0.2960
    1W        W47576   4.205  11.257   0.711 -0.1080  0.1213 -0.1656
    1W        W47577  14.546   2.059   9.306  0.3276 -0.0607  0.0018
    1W        W47578  29.015  28.367   7.652  0.0170 -0.0481  0.3476
    1W        W47579  16.110  29.183   1.434 -0.0007  0.1434 -0.2422
    1W        W47580  14.017  22.715   7.635  0.3889  0.0101  0.1434
    1W        W47581  10.451   5.958   1.122  0.1082 -0.0513 -0.1395
    1W        W47582   3.449  26.331   7.909  0.1589  0.0020  0.1559
    1W        W47583   5.966  12.939   3.193  0.1965 -0.2200 -0.1192
    1W        W47584  23.786  22.304   6.591 -0.2085 -0.2938 -0.1111
    1W        W47585   0.619  22.937   1.091  0.2719  0.1880  0.1254
    1W        W47586   5.059  24.661   8.160  0.0097 -0.0917  0.1672
    1W        W47587   7.167  12.084   9.100  0.0500  0.1565 -0.2510
    1W        W47588   0.911   3.630   9.012  0.0442 -0.0418 -0.2065
    1W        W47589  15.765  21.505   9.148  0.0719 -0.1852 -0.1761
    1W        W47590  20.741  14.349   1.303  0.1788 -0.0244  0.2164
    1W        W47591  26.445  22.222   1.174  0.4080 -0.0219  0.0812
    1W        W47592  21.908  18.936   8.081 -0.0129 -0.1119 -0.4142
    1W        W47593   3.667  18.532   7.580 -0.0300 -0.0205 -0.2486
    1W        W47594  16.989  29.431   1.590  0.1875 -0.1022 -0.2560
    1W        W47595  12.517   7.744   1.084 -0.1311  0.1513  0.1249
    1W        W47596   6.345  20.069   7.857  0.3849 -0.1818 -0.3356
    1W        W47597   8.019  22.316   1.397  0.1336  0.0083  0.1434
    1W        W47598  21.483   1.956   8.782 -0.0843 -0.0130  0.1902
    1W        W47599   6.352   4.947   7.351 -0.1797  0.5306 -0.1353
    1W        W47600  26.969   3.072   6.695 -0.2751 -0.1610 -0.0045
    1W        W47601  18.128  27.341   0.640  0.0971 -0.2609  0.0408
    1W        W47602   8.077   6.127   0.381 -0.0572  0.0209  0.2054
    1W        W47603   9.737  27.496   0.116  0.1556  0.1162  0.1846
    1W        W47604   3.721   7.424   1.462 -0.0587 -0.3150  0.1790
    1W        W47605  21.656  29.436   1.857 -0.0004  0.1521 -0.1250
    1W        W47606  26.061  19.488   8.062  0.0192 -0.2536  0.2061
    1W        W47607   6.540   1.433   7.475  0.1127 -0.0463  0.0135
    1W        W47608  27.632  27.888   0.190  0.1360 -0.4033 -0.1296
    1W        W47609  15.647   4.074   2.367 -0.0885 -0.0509  0.2837
    1W        W47610   8.346  20.448   6.972  0.1706 -0.0202 -0.0457
    1W        W47611  10.577   8.374   0.925 -0.2832 -0.2746 -0.0032
    1W        W47612  18.674  25.362   8.231 -0.0622 -0.1525  0.1590
    1W        W47613  21.111  29.642   0.942  0.1817 -0.0340  0.0451
    1W        W47614  16.343  10.509   7.015  0.0846  0.1711  0.0347
    1W        W47615  15.344  27.712   0.834 -0.1034  0.0244  0.3390
    1W        W47616   9.356   7.619   8.761  0.0517 -0.1259  0.1832
    1W        W47617  11.830  10.964   8.502  0.0915  0.0190 -0.0676
    1W        W47618  23.327  15.121   7.162  0.0830 -0.3304 -0.2124
    1W        W47619  13.680   5.241   2.644  0.0276 -0.0236 -0.0246
    1W        W47620  21.610  10.721   2.606 -0.0269 -0.0633 -0.0624
    1W        W47621   2.471  15.384   8.886  0.3851 -0.0657 -0.2301
    1W        W47622  26.737   8.951   6.460 -0.0154  0.1430  0.1424
    1W        W47623  14.346  29.953   7.258  0.2837 -0.2523  0.4485
    1W        W47624  24.049  12.490   0.630 -0.0996  0.0085 -0.1663
    1W        W47625  18.742  12.640   8.809 -0.0560 -0.0214 -0.1346
    1W        W47626  24.575  14.973   9.340 -0.3536 -0.1975 -0.1576
    1W        W47627  29.894  11.977   5.769 -0.0333 -0.2758  0.0448
    1W        W47628  12.838  24.709   8.685 -0.3598 -0.0745 -0.0094
    1W        W47629   4.147  12.350   7.023 -0.2689 -0.1149 -0.2390
    1W        W47630   3.412   9.408   7.126 -0.2752  0.2213  0.0537
    1W        W47631  27.873  27.106   7.115  0.3754  0.3937  0.1140
    1W        W47632   2.647   2.992   8.021  0.0247 -0.0911  0.1436
    1W        W47633  28.801  24.329   8.114 -0.2773 -0.3070  0.1628
    1W        W47634  12.568  19.745   1.932 -0.2638  0.3018 -0.1015
    1W        W47635  15.597   6.634   7.821  0.0773  0.0310 -0.0375
    1W        W47636  20.642  13.860   1.799  0.3120  0.0912  0.2363
    1W        W47637  15.239  11.657   8.175 -0.1935  0.1250  0.1380
    1W        W47638  19.361  15.465   7.904 -0.5954  0.1184  0.2545
    1W        W47639  12.207   5.541   8.587 -0.2181  0.5061  0.0037
    1W        W47640  18.813  17.663   2.433 -0.0948 -0.0268  0.0036
    1W        W47641  13.857  19.891   1.533 -0.0953 -0.1582 -0.2420
    1W        W47642   1.749  25.145   9.047 -0.0394  0.1549  0.0896
    1W        W47643  10.245   9.521   0.407 -0.0506 -0.2289  0.0591
    1W        W47644  24.068  29.215   2.499  0.0089  0.1972 -0.0717
    1W        W47645  26.779  14.383   0.350  0.2968 -0.3317 -0.0669
    1W        W47646  15.228   3.755   1.423  0.2131 -0.0407  0.0668
    1W        W47647   2.064   4.466   2.633 -0.0659 -0.0515 -0.1807
    1W        W47648  24.086   8.063   0.953 -0.2722  0.1633 -0.0177
    1W        W47649  24.410  11.496   7.852  0.1800 -0.2209 -0.1301
    1W        W47650  20.917  15.666   8.467  0.0071  0.0373  0.3152
    1W        W47651   2.492  26.939   0.181  0.3401 -0.0846  0.1140
    1W        W47652  15.794  16.565   1.847  0.0815 -0.1224  0.0196
    1W        W47653  21.762  15.644   9.018 -0.0270  0.2856 -0.2036
    1W        W47654  11.556  11.179   8.892  0.2299  0.1395  0.1106
    1W        W47655  26.679   7.417   8.980 -0.1257  0.0176 -0.0190
    1W        W47656   3.101  28.986   0.677 -0.0408  0.0444  0.1088
    1W        W47657   6.768  24.700   7.065  0.2821 -0.2072 -0.1390
    1W        W47658  14.247   2.462   4.138 -0.2767 -0.1322 -0.0605
    1W        W47659  18.012  18.991   2.595  0.1322 -0.3834 -0.2970
    1W        W47660  17.453  21.149   9.160  0.0384  0.2094 -0.0893
    1W        W47661  11.825  23.439   6.246  0.1149  0.2634 -0.2296
    1W        W47662  10.199  18.357   1.040  0.1738 -0.1467 -0.1037
    1W        W47663   1.963   2.640   3.374 -0.0393 -0.0694 -0.0652
    1W        W47664  24.796   4.323   2.405 -0.1078  0.1934  0.2499
    1W        W47665  25.824   4.615   8.451  0.1101 -0.0847  0.0920
    1W        W47666  23.850  20.616   0.755 -0.5596  0.0075  0.0562
    1W        W47667  11.451  23.597   8.331  0.0418 -0.1449  0.0873
    1W        W47668  24.932   5.805   8.354  0.0923 -0.1895 -0.1668
    1W        W47669   6.286   9.734   9.211  0.2485  0.1602 -0.0984
    1W        W47670  16.777  22.254   8.420 -0.2529 -0.2466 -0.1299
    1W        W47671  28.780   8.039   1.431 -0.0632 -0.0446 -0.3641
    1W        W47672  16.734  27.482   0.752 -0.3889  0.2759 -0.0310
    1W        W47673   3.539  28.551   3.888 -0.0261  0.1456 -0.3046
    1W        W47674  20.721  27.900   1.148  0.1386  0.3187 -0.1107
    1W        W47675   4.054   0.806   7.594 -0.2102  0.2980  0.1806
    1W        W47676   2.558  20.010   5.483  0.1910 -0.1915 -0.2464
    1W        W47677  17.827   2.435   7.312 -0.1469  0.1190  0.0607
    1W        W47678  13.176   8.913   9.098 -0.1854  0.1035  0.0023
    1W        W47679  20.091  13.188   1.612  0.2085  0.0342 -0.1039
    1W        W47680  28.771  13.048   9.105 -0.0826  0.0592 -0.0098
    1W        W47681  12.403   0.320   1.355  0.3439 -0.0431  0.1542
    1W        W47682  15.725  10.060   0.643 -0.0533 -0.0556  0.1087
    1W        W47683  19.516  19.972   8.665  0.1343  0.1486 -0.0989
    1W        W47684   1.533  23.612   1.354 -0.0401  0.1879 -0.1429
    1W        W47685   4.295  23.956   0.144 -0.1086 -0.2394  0.4399
    1W        W47686  24.284   4.630   0.493 -0.0881  0.0397 -0.0355
    1W        W47687  20.736   0.229   2.087  0.2085 -0.3850  0.0549
    1W        W47688  22.976  13.165   8.226 -0.0781 -0.2736 -0.0229
    1W        W47689  26.565  12.646   8.386 -0.1798  0.0546 -0.1471
    1W        W47690   9.832  25.070   6.758 -0.1531  0.2732  0.1997
    1W        W47691   4.555   8.855   6.329  0.2362  0.0298  0.3538
    1W        W47692  26.542  14.655   9.362  0.0951 -0.1721 -0.1945
    1W        W47693  21.031  16.884   8.074  0.1474 -0.4875 -0.0803
    1W        W47694   4.015   4.085   7.303 -0.5161 -0.2095  0.0970
    1W        W47695   2.263  22.412   0.191 -0.1362 -0.1407 -0.1817
    1W        W47696  16.408   6.063   2.755 -0.2023 -0.0125  0.0822
    1W        W47697  20.376   6.397   2.275  0.1693  0.2316  0.1837
    1W        W47698   4.225  29.935   1.962 -0.4202 -0.0669 -0.0245
    1W        W47699   3.657   0.094   2.635 -0.1525  0.1524 -0.1493
    1W        W47700  17.341  28.812   0.648 -0.1771  0.0082  0.0538
    1W        W47701   1.866   8.362   1.615  0.2568 -0.0097  0.2208
    1W        W47702  27.831  24.428   1.941 -0.2897 -0.0319  0.2186
    1W        W47703  13.675  10.598   9.227  0.1371 -0.2652  0.1342
    1W        W47704  21.216  19.592   7.789 -0.2781  0.2388  0.1406
    1W        W47705  24.709   8.255   1.796 -0.0609  0.3123  0.0264
    1W        W47706  11.838  20.624   8.389  0.0560  0.2320 -0.1188
    1W        W47707  25.527  19.365   6.901  0.3664 -0.1454  0.2263
    1W        W47708  10.603  20.175   0.190 -0.0505 -0.0142  0.1328
    1W        W47709   7.490  22.127   0.693  0.0205 -0.1715 -0.1140
    1W        W47710   8.409  19.187   9.139 -0.0406  0.0655 -0.1123
    1W        W47711  17.853  14.305   8.568  0.3027  0.1764  0.2068
    1W        W47712  16.423   6.288   7.871 -0.1344  0.1337  0.1697
    1W        W47713   5.131  27.444   7.327 -0.0130  0.3666  0.0124
    1W        W47714  10.907  21.480   7.051 -0.1023 -0.0049  0.0473
    1W        W47715  26.782  23.443   6.177  0.0549  0.1223  0.1068
    1W        W47716  10.667  10.973   0.771 -0.2309 -0.1052 -0.0776
    1W        W47717  13.127  17.576   0.600 -0.1257  0.2657 -0.1798
    1W        W47718  23.784  15.189   1.378  0.2415  0.1709  0.0786
    1W        W47719  23.908   7.581   7.099 -0.0569  0.1330 -0.2859
    1W        W47720  19.939  22.276   8.932 -0.0019 -0.1418 -0.0473
    1W        W47721  10.054   7.953   1.851 -0.0915  0.1428  0.0905
    1W        W47722   9.020  28.822   3.239  0.1421 -0.1484  0.0212
    1W        W47723  23.722  22.221   8.059 -0.1285  0.0057 -0.1263
    1W        W47724  17.511  18.041   1.668 -0.0536 -0.1839  0.0353
    1W        W47725  27.564   8.244   8.320  0.2627  0.1642 -0.3898
    1W        W47726   6.432   8.381   3.149 -0.0652 -0.2658 -0.0195
    1W        W47727  22.875  29.997   1.179  0.2344 -0.1150 -0.2734
    1W        W47728  10.868   3.831   8.783  0.0769 -0.0872 -0.0855
    1W        W47729   4.212   7.458   0.669  0.1515  0.0596 -0.1601
    1W        W47730   9.769  18.851   0.615  0.0380 -0.0451  0.0213
    1W        W47731  28.273  18.532   0.787  0.0930 -0.0694  0.0665
    1W        W47732  23.829  26.408   1.765 -0.0679 -0.2486 -0.1608
    1W        W47733  28.281  14.696   0.850 -0.0461 -0.0478  0.0052
    1W        W47734  23.313  21.970   6.688 -0.5550  0.0195 -0.0693
    1W        W47735  11.543   7.747   1.435 -0.0086  0.1341 -0.3598
    1W        W47736  28.223  25.743   2.472 -0.1471 -0.1280  0.2843
    1W        W47737   4.045   6.522   7.262 -0.2469  0.0445 -0.2964
    1W        W47738  18.732  17.517   9.322  0.0737 -0.1199 -0.2219
    1W        W47739   3.434  23.420   6.521 -0.1541 -0.1078 -0.1018
    1W        W47740  25.036  26.738   1.343  0.3548 -0.2872 -0.0816
    1W        W47741   9.806   5.986   9.276  0.2020 -0.1854  0.0739
    1W        W47742  23.260  16.754   7.693  0.0207  0.2820 -0.5774
    1W        W47743  22.114  15.394   7.933  0.2696  0.1340  0.0175
    1W        W47744  29.113  14.129   5.566 -0.1841 -0.0884  0.0992
    1W        W47745   0.140  24.281   7.351  0.0034  0.2824 -0.1917
    1W        W47746   0.531  13.645   6.472  0.1380 -0.2592  0.1891
    1W        W47747   2.521   3.049   2.033 -0.1419 -0.1571  0.0511
    1W        W47748  15.508  25.890   7.578 -0.1753 -0.0837  0.1729
    1W        W47749  19.396  22.675   2.828 -0.2195  0.1822  0.1573
    1W        W47750  23.694  19.866   8.418 -0.4073 -0.1235  0.1122
    1W        W47751  27.823   3.667   7.081  0.2645 -0.0342  0.1143
    1W        W47752   2.539  28.073   8.010  0.2325 -0.1137  0.0933
    1W        W47753   6.091   5.369   8.950  0.2311  0.1134 -0.2867
    1W        W47754  22.197  27.877   1.084  0.0929 -0.0270  0.1704
    1W        W47755   5.974  29.848   1.262  0.0241  0.1728 -0.0703
    1W        W47756   5.658  25.907   0.051  0.1447 -0.1280 -0.0253
    1W        W47757   7.602  27.048   3.108  0.2184 -0.2464 -0.0505
    1W        W47758  16.444  14.315   2.557  0.0324 -0.3297  0.2046
    1W        W47759   0.519  11.712   2.932  0.3111  0.0144 -0.3369
    1W        W47760   2.346  29.895   1.120  0.1042  0.2859 -0.2554
    1W        W47761  15.427  19.827   1.378 -0.0268  0.2418  0.0388
    1W        W47762  21.695   0.382   7.657  0.0602 -0.2989  0.0266
    1W        W47763  23.281   8.670   6.952  0.0944  0.0986  0.2114
    1W        W47764  14.096  15.903   1.901  0.1059 -0.0772 -0.2350
    1W        W47765  30.108  12.962   1.501 -0.1714 -0.1126 -0.0683
    1W        W47766   1.930   1.372   7.899  0.2854 -0.0613 -0.0182
    1W        W47767  28.529  20.916   1.345 -0.3828  0.3657 -0.1766
    1W        W47768  19.702   4.188   0.669  0.2047  0.2904  0.0272
    1W        W47769   1.220  20.316   8.108  0.5104 -0.2377 -0.0019
    1W        W47770  15.709  11.739   0.616 -0.0866  0.2329  0.1437
    1W        W47771   7.998  24.687   8.297  0.0308  0.1114 -0.2672
    1W        W47772  28.073  10.545   8.676 -0.1356 -0.1823 -0.0007
    1W        W47773  27.075  26.164   0.583  0.0189  0.1234 -0.0432
    1W        W47774  19.433  22.996   1.512  0.0157 -0.1594  0.1514
    1W        W47775  21.154  17.876   8.236 -0.1024  0.1341 -0.2170
    1W        W47776  22.743  20.043   6.187 -0.2240  0.0193 -0.1404
    1W        W47777  27.875   4.202   7.022  0.0597  0.1376  0.1718
    1W        W47778   6.188  14.877   1.811  0.0852  0.0471 -0.0059
    1W        W47779  24.247  22.424   2.641  0.0432  0.2565  0.1155
    1W        W47780  14.920   5.071   0.244  0.0501 -0.3517 -0.1119
    1W        W47781  27.666  23.277   1.577  0.2091 -0.0515  0.1884
    1W        W47782  15.366   9.427   0.028 -0.0548 -0.0009  0.0873
    1W        W47783  22.416  20.279   8.566  0.0032  0.0299  0.0043
    1W        W47784  17.467  19.308   2.615 -0.2579  0.0268  0.0437
    1W        W47785   5.627  13.882   8.944 -0.1660 -0.2368 -0.0731
    1W        W47786  26.577  12.901   6.991  0.2430  0.3111  0.0514
    1W        W47787  25.286   7.975   7.263 -0.3201  0.0241 -0.0565
    1W        W47788  24.954  26.010   2.644 -0.0648  0.0875  0.4002
    1W        W47789  27.477  26.933   1.066  0.3654  0.1102  0.3207
    1W        W47790  26.969  28.239   9.039  0.2445 -0.0342  0.2136
    1W        W47791  13.662  14.846   0.837  0.1739  0.0075 -0.2090
    1W        W47792   0.590  17.755   7.107 -0.0911  0.1542 -0.1459
    1W        W47793   9.706   0.859   1.845 -0.1415  0.3842 -0.0749
    1W        W47794   4.847   8.365   2.863 -0.0924 -0.0519  0.3286
    1W        W47795  12.381  12.569   9.333 -0.0467  0.0362 -0.1497
    1W        W47796  10.786   5.069   9.305  0.1250 -0.1220 -0.2072
    1W        W47797  15.882  14.752   8.925 -0.2487  0.0981  0.1826
    1W        W47798  17.602  12.436   7.488  0.2614 -0.0945  0.0825
    1W        W47799  28.110   1.312   8.758  0.0241 -0.0949 -0.0923
    1W        W47800   5.568   0.865   8.560 -0.0273  0.0645 -0.2771
    1W        W47801  10.956  23.863   6.734  0.1977  0.1528 -0.0131
    1W        W47802   5.247  14.936   1.353 -0.1309 -0.0801 -0.0486
    1W        W47803  18.650  13.268   7.713 -0.1587 -0.2625 -0.0784
    1W        W47804  16.508  19.755   8.145 -0.2117 -0.1822 -0.0881
    1W        W47805  13.632   2.842   3.343  0.3322  0.1252 -0.0387
    1W        W47806  18.169  16.574   8.942 -0.0506 -0.1274 -0.3062
    1W        W47807   4.350  10.562   6.481 -0.2187 -0.0081  0.1711
    1W        W47808  18.915   9.216   8.228 -0.0436 -0.2352  0.2762
    1W        W47809   5.468   1.461   9.366 -0.0960  0.2070  0.4724
    1W        W47810   4.591  29.706   3.365 -0.0032  0.0424 -0.1452
    1W        W47811   8.316  23.404   8.076 -0.2872 -0.0268  0.1717
    1W        W47812   7.838  11.983   8.333 -0.1993  0.2339  0.0146
    1W        W47813   7.234  21.691   0.031  0.1755  0.0751  0.2019
    1W        W47814  12.515  12.112   1.588 -0.2382  0.1108 -0.2433
    1W        W47815  25.609  26.534   0.348  0.2223  0.0528  0.0474
    1W        W47816   1.815  10.746   1.598 -0.1408  0.1021  0.0155
    1W        W47817  19.051  24.370   7.460  0.2616 -0.1983 -0.1282
    1W        W47818  18.966   0.118   8.415 -0.2784 -0.0859  0.0727
    1W        W47819  24.785  25.787   7.299 -0.0651  0.1580 -0.0967
    1W        W47820   3.374   8.287   8.060 -0.2088 -0.1079 -0.2176
    1W        W47821  27.362  20.555   6.723  0.1053 -0.1464  0.2605
    1W        W47822  21.849  10.246   1.792  0.0942  0.2173 -0.0113
    1W        W47823  26.725  22.376   0.198 -0.3620 -0.0613  0.0931
    1W        W47824  28.768   0.131   8.479  0.0300  0.1978  0.2787
    1W        W47825  28.604  13.023   0.237  0.3369 -0.3052 -0.3126
    1W        W47826  26.163  28.506   7.370 -0.0008 -0.4384 -0.2623
    1W        W47827   9.994   1.384   1.060  0.0728  0.0154  0.0958
    1W        W47828  28.984  15.520   5.709  0.3189 -0.0543  0.0474
    1W        W47829  11.640  24.006   3.256  0.2646  0.0035 -0.0368
    1W        W47830  12.004   1.770   7.636  0.2536 -0.0419 -0.0138
    1W        W47831  28.457  21.075   6.044  0.0198  0.1962  0.5364
    1W        W47832   3.721   1.967   3.623 -0.0760 -0.0477  0.1488
    1W        W47833  20.512  21.088   2.600  0.2253  0.0865 -0.1564
    1W        W47834  12.476  12.325   7.438  0.0697 -0.1614 -0.2596
    1W        W47835   7.444  17.884   0.789 -0.1557  0.2065  0.1298
    1W        W47836  13.964  15.158   9.183  0.2208  0.0646  0.0959
    1W        W47837  10.085  14.934   9.369  0.2546 -0.0896 -0.3334
    1W        W47838   8.194  25.102   2.539  0.1338 -0.0952 -0.2057
    1W        W47839   4.989  19.070   6.419  0.0458 -0.2366  0.0079
    1W        W47840   5.158  19.183   7.955  0.0069  0.0554 -0.1806
    1W        W47841   3.373  10.323   7.400  0.0034  0.2584  0.1781
    1W        W47842   2.845  25.382   0.925 -0.2014 -0.1399 -0.1630
    1W        W47843  17.221  11.666   8.755 -0.0178 -0.1246 -0.1675
    1W        W47844   0.057  22.862   2.737 -0.0445 -0.0837 -0.0303
    1W        W47845  17.096  24.586   8.819  0.0798 -0.3378  0.1195
    1W        W47846   3.848  20.932   8.424 -0.2254  0.0700 -0.2320
    1W        W47847  17.837  29.077   2.785 -0.1698 -0.1084  0.0619
    1W        W47848  28.449  11.056   6.308 -0.1947  0.2014  0.4407
    1W        W47849  23.761  23.022   0.824 -0.1910  0.0128  0.1064
    1W        W47850   3.307  21.769   6.126 -0.4344 -0.0201  0.0341
    1W        W47851   3.124  10.125   9.211  0.0438  0.3854 -0.1108
    1W        W47852  15.074  20.058   7.869 -0.2260 -0.5239  0.1565
    1W        W47853  17.239   4.736   3.022 -0.0293  0.0493 -0.2275
    1W        W47854  23.127  12.133   2.161  0.0345  0.2174  0.0002
    1W        W47855   1.071   0.481   7.710 -0.1424  0.0158  0.3293
    1W        W47856  19.726   9.549   1.036 -0.0965 -0.0355 -0.0046
    1W        W47857   5.686   2.361   0.424  0.1662 -0.2577  0.3947
    1W        W47858  15.684   3.449   0.630  0.2859  0.2581 -0.2838
    1W        W47859  25.188  25.948   7.605 -0.0847 -0.2622 -0.3595
    1W        W47860  25.121   5.059   7.952  0.2253 -0.0965  0.0822
    1W        W47861  11.177  25.629   6.728  0.0200 -0.1456  0.0455
    1W        W47862  10.810   3.918   1.490 -0.2967  0.0189  0.2627
    1W        W47863   9.892  19.120   6.921 -0.1703  0.1008  0.1658
    1W        W47864   6.714  11.871   3.246  0.1257 -0.1049 -0.3758
    1W        W47865  23.160   6.894   3.887 -0.1276  0.0987  0.0513
    1W        W47866   9.126  27.156   3.487  0.2697  0.2991 -0.2734
    1W        W47867  28.757  27.403   3.528  0.0176  0.1098 -0.1082
    1W        W47868   1.196  24.523   1.137  0.0612  0.1562 -0.1283
    1W        W47869  27.894   3.548   1.566 -0.1688  0.0832 -0.0445
    1W        W47870  26.452   5.433   7.670 -0.0965 -0.2965  0.0166
    1W        W47871   3.932  18.467   6.067 -0.0252 -0.2576  0.0535
    1W        W47872  29.920  29.666   7.542  0.0792 -0.6098  0.1208
    1W        W47873   4.840  22.093   5.389 -0.1106 -0.0941  0.3807
    1W        W47874  11.987   4.503   0.811  0.0974 -0.0154 -0.1030
    1W        W47875  11.144   0.825   8.022  0.1130  0.1868 -0.0818
    1W        W47876  20.519  10.649   1.771 -0.2333 -0.1611  0.1850
    1W        W47877  14.387  25.048   7.925  0.1513 -0.1439  0.0406
    1W        W47878  20.997  14.643   8.657  0.1210  0.1635  0.2008
    1W        W47879  16.510   8.225   8.626 -0.0337 -0.0088  0.0467
    1W        W47880   3.220  27.743   1.456  0.0386  0.1295 -0.3608
    1W        W47881   9.606  14.325   1.696 -0.1831 -0.0375 -0.0615
    1W        W47882  10.440  15.745   0.597  0.0715 -0.2423 -0.2115
    1W        W47883   4.361  11.520   8.181 -0.3439 -0.0916  0.0147
    1W        W47884   5.847   8.842   0.377 -0.3449  0.1240 -0.0761
    1W        W47885  11.018  12.267   8.123 -0.3531 -0.2662 -0.0566
    1W        W47886  26.683   4.405   0.764 -0.0080  0.2707 -0.0069
    1W        W47887   3.320  20.771   8.932 -0.0333  0.2719  0.1755
    1W        W47888  15.540   9.007   7.975 -0.0566  0.1362  0.0360
    1W        W47889  26.690  14.390   8.791 -0.2373 -0.2424 -0.0578
    1W        W47890  20.861   0.949   7.267 -0.2980  0.0677  0.2908
    1W        W47891  21.158  30.025   8.491 -0.1153 -0.2448 -0.0630
    1W        W47892   0.511  18.917   7.959 -0.2861 -0.1347  0.1502
    1W        W47893  13.327  12.670   0.999 -0.2618  0.0324  0.0791
    1W        W47894   2.300  21.171   8.242  0.1583  0.0558 -0.0422
    1W        W47895  24.473   0.417   9.154 -0.0791  0.1256 -0.0139
    1W        W47896  22.492  12.591   8.336  0.1294  0.3052 -0.0277
    1W        W47897  28.184   7.593   0.147 -0.2568  0.0815 -0.2122
    1W        W47898  23.365  17.526   2.010  0.2775  0.0061  0.1585
    1W        W47899   4.750   1.077   9.282 -0.1140 -0.0348  0.0226
    1W        W47900   7.929   2.429   7.426 -0.1657  0.2388 -0.2734
    1W        W47901  12.886   8.513   2.977  0.0539 -0.1457  0.0087
    1W        W47902  26.426  10.166   6.321  0.2745 -0.1350 -0.2490
    1W        W47903  20.083  25.711   0.548  0.0666 -0.5747 -0.3589
    1W        W47904  30.008  30.021   1.792 -0.0040  0.0900 -0.1060
    1W        W47905  27.633  19.810   0.803 -0.1364 -0.2815 -0.0286
    1W        W47906  14.111  25.841   0.481 -0.1330 -0.1498  0.1691
    1W        W47907  16.760  17.029   7.367  0.1635  0.2594 -0.0809
    1W        W47908  29.372  13.071   6.710  0.1232 -0.0859 -0.3169
    1W        W47909  14.553  25.010   9.380  0.2361  0.0203 -0.2500
    1W        W47910  14.351  15.935   8.055 -0.1483 -0.0328  0.0136
    1W        W47911   1.396  10.991   6.938  0.0109 -0.0793 -0.0778
    1W        W47912   8.608  19.575   0.059  0.0297 -0.0480 -0.3512
    1W        W47913   4.547  12.937   5.972 -0.0124 -0.0771 -0.1124
    1W        W47914  18.780  30.065   7.622 -0.3316  0.1376 -0.2468
    1W        W47915  20.400   4.185   1.674 -0.0248  0.1068  0.0411
    1W        W47916  25.005  16.697   9.189  0.0009 -0.0437  0.0992
    1W        W47917   9.995  20.262   0.527 -0.1758  0.2356 -0.1942
    1W        W47918  18.074  12.335   0.954 -0.2307  0.3121  0.1318
    1W        W47919  25.645   1.287   1.138 -0.0110  0.1351  0.1028
    1W        W47920   0.699  15.631   6.682 -0.0338 -0.1855  0.1722
    1W        W47921  18.321  24.383   8.246 -0.1408  0.3309  0.1166
    1W        W47922  19.283  29.087   9.320 -0.0675 -0.2814 -0.0977
    1W        W47923  19.419   2.113   1.325 -0.0304 -0.2408 -0.0444
    1W        W47924  20.769  28.097   1.603 -0.2044 -0.1060 -0.3017
    1W        W47925  21.320   8.490   7.053 -0.1830 -0.2604 -0.0212
    1W        W47926  16.266  13.095   1.277  0.0004  0.0493  0.1065
    1W        W47927  25.807   3.429   8.342  0.0684  0.0846  0.0432
    1W        W47928  12.196   6.662   0.656 -0.1892 -0.0182  0.4348
    1W        W47929  14.823   7.292   2.470  0.0622  0.2519 -0.2499
    1W        W47930  22.409   3.868   7.664 -0.2258  0.2201  0.0995
    1W        W47931   0.721   4.509   2.420  0.0093 -0.1454  0.0386
    1W        W47932   5.442   4.126   8.167 -0.0371  0.0333  0.1499
    1W        W47933  11.096   9.351   0.077 -0.0151  0.1260  0.0083
    1W        W47934  24.093  21.663   7.857 -0.0328  0.1708 -0.0633
    1W        W47935   1.017  26.132   6.833  0.1966  0.0191 -0.0031
    1W        W47936  17.583  11.510   7.298 -0.1247  0.0481  0.0283
    1W        W47937  20.590  28.829   2.025  0.0236  0.0971  0.2716
    1W        W47938  14.743   6.127   9.291  0.0852  0.1298  0.1901
    1W        W47939  18.043  14.517   2.267 -0.0329  0.0802  0.1175
    1W        W47940  14.709  23.509   1.224 -0.0166 -0.1122  0.1820
    1W        W47941  22.044  24.441   0.812 -0.0070 -0.3277 -0.0365
    1W        W47942   5.499  18.707   1.745  0.3842  0.0594 -0.5198
    1W        W47943  18.687   4.915   0.412 -0.1512 -0.0324 -0.1414
    1W        W47944  27.034   3.499   6.902  0.3013  0.0641  0.0506
    1W        W47945  22.371  29.012   2.250 -0.0782  0.2241  0.1667
    1W        W47946   7.367   2.229   1.321 -0.3310  0.2560  0.1700
    1W        W47947  26.715  23.871   7.165  0.1654 -0.2736  0.0256
    1W        W47948   1.021  26.031   7.373 -0.3701  0.0386  0.1350
    1W        W47949   4.357  18.215   6.069  0.1538  0.0343 -0.0170
    1W        W47950  19.125  23.807   2.289  0.0830  0.0892 -0.0123
    1W        W47951  12.289  19.243   7.497 -0.1354  0.0033 -0.1291
    1W        W47952  23.719  23.122   7.062 -0.2271 -0.3964 -0.0300
    1W        W47953   1.327  20.439   5.906 -0.2094  0.2250 -0.2006
    1W        W47954  13.035  13.048   0.313  0.1389  0.0908  0.1198
    1W        W47955  27.567  28.082   2.055  0.1363  0.3975  0.0396
    1W        W47956  28.237  28.503   2.489 -0.0910  0.0878  0.1714
    1W        W47957  17.262  28.662   8.706  0.2104 -0.2569  0.2235
    1W        W47958  15.661  16.834   7.186  0.0069 -0.3477  0.1208
    1W        W47959  24.561  25.522   0.068  0.1076  0.1553 -0.3012
    1W        W47960  17.770   6.029   3.304  0.2846  0.0434 -0.0108
    1W        W47961  19.591  23.906   1.012 -0.0890 -0.0172 -0.1111
    1W        W47962  19.491  16.369   6.964 -0.1741 -0.0392  0.1795
    1W        W47963  14.617  23.063   8.840  0.1490 -0.3237 -0.3526
    1W        W47964   5.155  12.815   0.500  0.2417  0.0233 -0.0816
    1W        W47965   5.968  26.269   9.392 -0.1716  0.0330 -0.0959
    1W        W47966  26.885  16.701   8.830  0.0940 -0.0766  0.2312
    1W        W47967   0.194   2.211   0.600 -0.1566  0.0954 -0.0837
    1W        W47968  21.164  16.223   1.680 -0.0056 -0.0014  0.1834
    1W        W47969   3.850  19.208   8.134  0.0709  0.0791 -0.2946
    1W        W47970  28.090  17.985   1.547 -0.0197  0.1521  0.1096
    1W        W47971   1.766  21.850   9.153 -0.0642 -0.0452 -0.1537
    1W        W47972  13.236  18.163   1.281 -0.1610 -0.1291 -0.1348
    1W        W47973   1.791   7.870   8.341  0.0328 -0.1527 -0.0318
    1W        W47974   5.796   8.008   9.308  0.0830 -0.1870  0.1614
    1W        W47975  17.873  27.969   6.147 -0.0016  0.0580 -0.0239
    1W        W47976   1.159  25.295   0.923  0.0272 -0.1518 -0.2296
    1W        W47977   7.927  14.865   7.617 -0.4021  0.1876  0.0112
    1W        W47978   8.431   1.967   0.490 -0.4077 -0.3189  0.1380
    1W        W47979   1.665  14.639   6.402  0.3265  0.2926  0.2378
    1W        W47980  11.014  27.126   1.408  0.0643  0.2089  0.1388
    1W        W47981   7.896  21.374   1.149 -0.2476  0.0530 -0.0963
    1W        W47982  17.297  14.138   0.461 -0.1707 -0.1179 -0.1156
    1W        W47983  21.589  21.310   6.568  0.0602 -0.1507  0.0293
    1W        W47984   6.686   6.717   8.552  0.1777 -0.1957 -0.1500
    1W        W47985  22.003   1.974   7.220  0.0283 -0.3682  0.0342
    1W        W47986   6.395  22.835   5.577  0.0738  0.1218 -0.1521
    1W        W47987  26.869  11.342   0.801  0.0990  0.1295 -0.1165
    1W        W47988   2.760   9.423   0.717 -0.0988 -0.1771 -0.2406
    1W        W47989  11.060  28.417   1.662  0.0246  0.1815 -0.1333
    1W        W47990   5.112  25.881   0.982 -0.0256 -0.0038  0.1602
    1W        W47991   0.664  16.750   0.752 -0.2965 -0.1350 -0.0046
    1W        W47992  19.943   4.822   2.617 -0.2931 -0.1751  0.0390
    1W        W47993  28.332   7.518   1.739  0.0008 -0.0233 -0.3214
    1W        W47994  29.344   5.327   0.531 -0.1055 -0.0648 -0.1995
    1W        W47995   4.075  28.957   0.186 -0.2781 -0.0648  0.2298
    1W        W47996  18.063   0.474   0.995  0.1186 -0.0558  0.1989
    1W        W47997  12.564  22.572   7.236  0.0434  0.5552 -0.0493
    1W        W47998   0.204  25.464   0.846  0.3664 -0.3374  0.0056
    1W        W47999  29.461   5.952   2.260  0.1023 -0.4158  0.0145
    1W        W48000  22.164   4.685   7.287 -0.3582  0.0975  0.2820
    1W        W48001  24.334  28.251   0.971 -0.0580 -0.3384  0.0000
    1W        W48002   3.348  23.651   9.387  0.2409  0.1338 -0.0465
    1W        W48003   4.189   3.644   7.161 -0.0223  0.1603 -0.0085
    1W        W48004  23.059  27.467   2.424  0.1012  0.1017  0.0740
    1W        W48005  24.659  26.024   1.835  0.0763 -0.0443 -0.2720
    1W        W48006  11.217  19.555   1.660  0.3593  0.1240  0.1324
    1W        W48007  24.965  12.413   8.130  0.0010  0.3497 -0.0417
    1W        W48008  15.535  24.722   2.061  0.1401  0.0245 -0.3625
    1W        W48009  12.377   2.771   8.869 -0.3212  0.0715  0.1431
    1W        W48010  18.013  20.951   1.487  0.1706 -0.0158 -0.1239
    1W        W48011  25.963  10.522   7.313  0.1212 -0.0083  0.0197
    1W        W48012  29.720  21.536   8.250  0.3416  0.2532  0.2702
    1W        W48013   5.045  26.210   1.375 -0.0477  0.3110 -0.2025
    1W        W48014  21.816  12.796   1.103  0.0040  0.2025 -0.0547
    1W        W48015  10.047   4.442   1.883  0.0107 -0.0046  0.0436
    1W        W48016   2.518  17.258   6.274  0.1143 -0.2239  0.1009
    1W        W48017  28.095  18.771   0.330 -0.1634 -0.0259 -0.3678
    1W        W48018   2.979  10.240   7.732  0.0060 -0.0897 -0.2388
    1W        W48019   5.027  12.969   8.551  0.1786  0.2758  0.1555
    1W        W48020  11.593   3.512   7.629 -0.4515 -0.1929  0.1766
    1W        W48021  15.020  19.561   1.293  0.2216  0.0685 -0.2908
    1W        W48022  14.860  18.688   7.062 -0.0858 -0.0679  0.1947
    1W        W48023   5.929  23.101   6.414  0.1244  0.1806  0.3346
    1W        W48024   8.073  16.366   2.630 -0.1332 -0.2426 -0.2101
    1W        W48025  13.179   3.082   2.353 -0.0048  0.1196  0.1350
    1W        W48026  22.001   9.775   7.432  0.4434 -0.0239 -0.0177
    1W        W48027  12.711   4.948   2.431 -0.1379 -0.0900  0.0970
    1W        W48028  10.346  26.848   7.947  0.0432  0.1176 -0.1557
    1W        W48029   0.626  10.260   1.260  0.4481 -0.1839 -0.0363
    1W        W48030  11.290   4.654   1.420 -0.0792 -0.0818  0.1287
    1W        W48031   8.574  17.834   6.811 -0.2007  0.0700  0.0512
    1W        W48032  19.648  13.448   1.696 -0.1986  0.3211  0.0053
    1W        W48033   7.065   4.200   9.183 -0.0223 -0.1420  0.0412
    1W        W48034   5.072   4.120   0.757  0.1084  0.0127  0.1538
    1W        W48035   0.964   6.877   7.738 -0.1770  0.3597  0.1514
    1W        W48036   0.698  17.267   1.520 -0.2580  0.0887  0.1502
    1W        W48037   4.438  28.468   1.735  0.2160 -0.3388 -0.1314
    1W        W48038  13.913  22.533   6.702 -0.2348  0.0985  0.0745
    1W        W48039  13.255   2.555   7.002  0.0109  0.2348 -0.2093
    1W        W48040  18.089  30.075   3.684  0.0478 -0.0948 -0.2725
    1W        W48041  14.346   2.353   1.773 -0.0684 -0.1500 -0.2782
    1W        W48042   5.278  12.024   7.685  0.3246  0.0634  0.1096
    1W        W48043  10.894  10.857   1.896  0.1573 -0.1330  0.2202
    1W        W48044  10.697   9.073   8.100 -0.1013  0.0266 -0.1274
    1W        W48045  13.951   7.003   8.726  0.0412  0.1043  0.0731
    1W        W48046  26.487   3.160   6.827  0.0659  0.1288 -0.0945
    1W        W48047  25.056  23.410   0.337 -0.1563 -0.0776  0.1934
    1W        W48048  27.907  17.556   9.250 -0.1636  0.0773  0.0221
    1W        W48049  28.198   5.527   0.516  0.2216  0.0196  0.0395
    1W        W48050  19.967  16.118   7.376  0.1810 -0.0126 -0.2567
    1W        W48051   9.118  18.189   2.011 -0.2264  0.0719  0.0275
    1W        W48052   8.837  27.144   0.597  0.1690  0.0891 -0.1163
    1W        W48053  13.226   1.425   7.652 -0.1275  0.0935  0.1520
    1W        W48054  16.420   8.514   1.170  0.4189 -0.0257  0.1560
    1W        W48055  23.547  27.459   2.360 -0.0322  0.0435  0.2343
    1W        W48056   4.764  19.966   0.922  0.3354  0.1190  0.1499
    1W        W48057  26.690  14.102   6.930 -0.0330  0.0209 -0.2316
    1W        W48058  23.287  21.138   7.938 -0.2489 -0.1520  0.0735
    1W        W48059   1.953  18.709   1.544 -0.0288  0.0705 -0.1571
    1W        W48060  17.177   6.968   0.885 -0.3365 -0.2121  0.0246
    1W        W48061  25.372   2.870   9.290 -0.3652 -0.1695  0.1772
    1W        W48062   7.660   9.351   2.683 -0.3676  0.1557 -0.0227
    1W        W48063   3.390  29.448   2.994  0.1114 -0.0534 -0.0171
    1W        W48064  21.022  12.347   8.268  0.1246  0.0690  0.0713
    1W        W48065  10.576  22.961   6.466  0.2250  0.3785  0.0171
    1W        W48066  20.073   2.727   1.438  0.1778 -0.1792  0.0246
    1W        W48067  27.590   4.854   1.257 -0.2798 -0.0271 -0.0109
    1W        W48068  18.747   7.588   0.641  0.0546 -0.1583 -0.1449
    1W        W48069  27.833  10.588   6.525  0.2092  0.0805  0.1896
    1W        W48070  25.505  14.832   5.820 -0.0398  0.0270  0.2050
    1W        W48071  20.257   3.738   1.932 -0.2397  0.0584  0.0605
    1W        W48072  29.813  20.878   0.445  0.2673  0.1582 -0.2766
    1W        W48073   0.197   1.652   0.590 -0.0896 -0.2170  0.0201
    1W        W48074   9.304   7.166   1.873  0.0778  0.0433 -0.2960
    1W        W48075  16.348   7.263   0.524 -0.0330  0.4183  0.0093
    1W        W48076  16.419  24.750   0.182 -0.1809  0.1394 -0.0354
    1W        W48077  23.187  23.018   8.113 -0.1397 -0.1183  0.0724
    1W        W48078  12.220   5.733   7.326 -0.0008 -0.1362  0.0556
    1W        W48079  21.464  11.977   0.750 -0.2067  0.0777 -0.2174
    1W        W48080  18.071  26.877   0.639 -0.0634  0.1168 -0.0684
    1W        W48081  14.375   0.414   8.644 -0.0101  0.1284  0.0712
    1W        W48082   0.349  18.273   0.474  0.3157  0.3828 -0.0472
    1W        W48083   0.154  20.922   6.430 -0.0068 -0.0731 -0.0521
    1W        W48084  17.070   3.953   1.317 -0.0661 -0.1044  0.0764
    1W        W48085  25.955  24.630   1.155 -0.2204  0.1065 -0.1711
    1W        W48086  14.058  17.040   0.462 -0.0704 -0.0390  0.2066
    1W        W48087  24.811   4.607   9.018 -0.2478  0.2564 -0.3303
    1W        W48088  22.040   8.314   8.842 -0.3406 -0.0285  0.0843
    1W        W48089  28.835  22.194   1.242  0.1534  0.1592 -0.2383
    1W        W48090  17.670  10.670   6.952 -0.0883 -0.1711 -0.0690
    1W        W48091  29.310   4.798   0.643 -0.1730 -0.0093 -0.0315
    1W        W48092  20.527  14.073   0.863 -0.1546 -0.1136  0.0926
    1W        W48093  21.556   9.153   0.431 -0.1702  0.0049 -0.0907
    1W        W48094  29.144  22.273   7.166 -0.0683  0.1473  0.1540
    1W        W48095  25.033  22.234   9.322  0.0591 -0.3436  0.0691
    1W        W48096  25.989  20.672   9.059  0.0320  0.1165 -0.1072
    1W        W48097  23.127  25.614   1.969  0.1477 -0.1364  0.3421
    1W        W48098  16.837   9.593   7.879  0.1773 -0.1227  0.1462
    1W        W48099  18.362   0.397   7.676 -0.1152  0.2193 -0.0146
    1W        W48100  20.504  20.666   2.117 -0.0691 -0.3509  0.0060
    1W        W48101  13.027  20.573   0.572 -0.1293 -0.4061 -0.0230
    1W        W48102  14.022   2.498   3.298  0.0449  0.6146  0.1975
    1W        W48103   5.961  16.663   1.908  0.1592 -0.1834 -0.2659
    1W        W48104  23.246  19.795   1.491  0.1864  0.2164  0.1048
    1W        W48105   5.225  18.358   8.149 -0.6956 -0.2352  0.2270
    1W        W48106   5.089   2.289   8.018  0.0419  0.1305 -0.1012
    1W        W48107  15.948   1.815   2.425  0.0810 -0.0189  0.0943
    1W        W48108  24.706  29.555   1.240 -0.1946 -0.3306  0.3157
    1W        W48109  21.823  22.772   8.018  0.1098  0.0374  0.0269
    1W        W48110   0.364  20.976   5.749  0.0989  0.1055  0.0880
    1W        W48111  29.876  14.273   6.078 -0.0335  0.0254  0.0447
    1W        W48112  12.923  29.823   1.734 -0.0202 -0.1140 -0.3241
    1W        W48113   7.886  21.252   1.621  0.1536  0.2448  0.3160
    1W        W48114   3.243  15.065   7.808 -0.0612  0.4418  0.2528
    1W        W48115  26.689  17.818   6.229 -0.1835 -0.2396 -0.0590
    1W        W48116   3.445  25.891   8.180 -0.3367  0.0349  0.0745
    1W        W48117  14.633  24.410   7.436 -0.0542 -0.1581  0.1290
    1W        W48118   6.854  19.700   1.028  0.0489 -0.3761 -0.0243
    1W        W48119  12.163   1.960   8.458  0.0438 -0.0940  0.0385
    1W        W48120  28.603  10.464   8.890  0.0331 -0.0234  0.0820
    1W        W48121   2.132   6.271   1.072  0.1478  0.1215  0.2048
    1W        W48122   6.382   7.830   8.537  0.2290  0.0066  0.0780
    1W        W48123  26.204  22.805   7.364 -0.2004 -0.2013 -0.2426
    1W        W48124  19.065  28.293   3.191 -0.0528 -0.1059  0.2035
    1W        W48125   5.235   6.561   3.485 -0.1917 -0.0822 -0.1519
    1W        W48126  12.977  19.435   1.874 -0.0867  0.1519 -0.1937
    1W        W48127   4.168   8.819   1.873 -0.3181  0.0052 -0.0616
    1W        W48128  19.085  26.985   8.661 -0.0972 -0.0052 -0.3727
    1W        W48129  15.618   0.850   7.634  0.2648 -0.0727  0.1332
    1W        W48130  27.361   3.078   6.320 -0.1381  0.1080 -0.0833
    1W        W48131   5.450  12.147   2.226  0.2399 -0.0339  0.3685
    1W        W48132  27.535  24.388   0.557  0.2656 -0.1072 -0.2091
    1W        W48133  10.325  10.716   9.047 -0.0214 -0.0776 -0.0890
    1W        W48134  27.435   1.833   1.338  0.2833  0.1284 -0.0757
    1W        W48135  16.132   0.840   6.950  0.2415  0.2703  0.2180
    1W        W48136  21.309   4.643   6.891 -0.1004 -0.1013  0.1672
    1W        W48137  26.558   7.636   7.693  0.2220 -0.0304 -0.1298
    1W        W48138  13.990   2.729   1.960  0.0316 -0.1460  0.1018
    1W        W48139  19.294  15.467   7.411 -0.0683 -0.1211  0.1019
    1W        W48140  13.110  18.307   2.081  0.0284  0.3554 -0.2390
    1W        W48141  10.817  15.525   8.255  0.1467 -0.1991  0.0713
    1W        W48142   6.222   3.130   0.385 -0.0096 -0.1033  0.0973
    1W        W48143  26.669  17.016   1.543  0.2602 -0.1562 -0.2499
    1W        W48144   2.037  16.735   0.701 -0.1926 -0.1288  0.1651
    1W        W48145   8.636   7.308   8.452  0.0974 -0.0116 -0.0992
    1W        W48146   8.870  22.721   9.190  0.1272 -0.2347 -0.0924
    1W        W48147   7.881  14.422   6.690 -0.0064  0.0579  0.3388
    1W        W48148  26.045  25.748   7.046  0.3004  0.2005 -0.3009
    1W        W48149   6.123   3.314   9.334 -0.0808  0.1353 -0.0876
    1W        W48150   4.043  12.934   6.090 -0.0589 -0.0827  0.1457
    1W        W48151  16.545   4.368   1.525  0.0280  0.2102 -0.4116
    1W        W48152  21.328   3.973   8.429 -0.3936 -0.2611 -0.1890
    1W        W48153  20.498  15.160   6.546  0.1162 -0.2016  0.1186
    1W        W48154   2.603   9.580   1.550 -0.1680  0.3655  0.3112
    1W        W48155  23.486  11.519   8.944 -0.1301  0.0286 -0.1139
    1W        W48156  12.894  21.906   1.519  0.0395 -0.1188 -0.2944
    1W        W48157   8.162  27.046   2.719 -0.0446 -0.0957  0.0979
    1W        W48158   6.675  28.682   8.722 -0.0610 -0.3283  0.0062
    1W        W48159  20.176  30.155   3.295  0.2925  0.1784 -0.0088
    1W        W48160  13.699   2.053   0.442 -0.0602 -0.1748  0.0987
    1W        W48161  17.437   5.734   0.925  0.0323  0.0448 -0.0421
    1W        W48162  14.234   4.612   8.121 -0.0124  0.1326 -0.1395
    1W        W48163  11.500  26.026   1.853  0.1784  0.0628 -0.0322
    1W        W48164  24.987   2.321   1.146 -0.0075  0.2189 -0.1634
    1W        W48165   6.124  12.290   0.411  0.3894  0.0491 -0.3044
    1W        W48166  13.804   8.310   1.848  0.2150  0.1786  0.2325
    1W        W48167  23.075  19.862   7.581 -0.0003 -0.0405 -0.0243
    1W        W48168  18.923  23.312   2.198  0.1816  0.0304 -0.1926
    1W        W48169   3.592  27.561   7.843  0.0259 -0.2349  0.2582
    1W        W48170  29.608   6.300   6.202 -0.4150  0.2231 -0.1650
    1W        W48171  12.753  26.485   0.954 -0.0757 -0.1192  0.0968
    1W        W48172  26.761  28.435   2.201  0.1034  0.2513 -0.0363
    1W        W48173  20.703   9.668   0.698  0.1613 -0.0501  0.1676
    1W        W48174  29.181  22.435   2.251  0.3359  0.1878 -0.0155
    1W        W48175   4.672  13.963   8.695 -0.1615 -0.3710  0.4099
    1W        W48176  18.272  27.787   0.366 -0.1322  0.4306 -0.1895
    1W        W48177   1.824  10.098   8.172  0.1524  0.1766  0.1519
    1W        W48178  10.757   9.738   9.253  0.4436  0.0071  0.1454
    1W        W48179   1.091  10.801   6.515  0.2310 -0.0512 -0.0436
    1W        W48180  22.126   6.115   8.307 -0.0065  0.0012  0.3097
    1W        W48181   8.910  23.542   6.009 -0.2779  0.0332 -0.1232
    1W        W48182  10.321   9.962   1.557 -0.0821  0.1793 -0.1949
    1W        W48183   5.477   0.140   1.989  0.0388 -0.1436  0.0797
    1W        W48184  15.409  12.019   2.186  0.2361  0.1064 -0.2678
    1W        W48185  20.135  17.760   9.141  0.1123  0.1187 -0.2025
    1W        W48186  29.310  24.562   1.891  0.1043 -0.0866 -0.0928
    1W        W48187  29.645  17.395   0.816 -0.0805 -0.1367  0.0821
    1W        W48188  29.193  23.770   8.646  0.1514  0.0414  0.2455
    1W        W48189  22.046   0.090   2.121  0.1598  0.0303  0.1209
    1W        W48190   8.243  19.540   0.477 -0.0832  0.0209  0.0578
    1W        W48191  11.265  13.089   0.060  0.0952  0.0380  0.0766
    1W        W48192  25.438   8.251   2.008  0.0774 -0.1766 -0.2339
    1W        W48193   5.888   5.083   0.659  0.1144  0.2590 -0.1150
    1W        W48194  24.427  15.836   0.459  0.1395  0.0611 -0.1753
    1W        W48195  24.293  26.682   3.462 -0.3222  0.0464 -0.1623
    1W        W48196  27.956  11.163   7.156  0.4451 -0.1626 -0.0574
    1W        W48197   3.270  29.806   2.658  0.1507 -0.2975 -0.1617
    1W        W48198   6.689  15.430   1.348 -0.0804 -0.3225  0.0712
    1W        W48199  11.373   3.992   1.718  0.1616 -0.1607 -0.0483
    1W        W48200  10.649  29.636   2.655 -0.1501  0.1062  0.3016
    1W        W48201  15.255  24.302   1.945  0.2508  0.0318  0.1038
    1W        W48202  12.981  26.306   7.639  0.1501 -0.1829  0.0517
    1W        W48203   3.678   2.662   0.611 -0.2587 -0.1886  0.1094
    1W        W48204  12.280  16.673   8.526  0.1050  0.0902  0.3364
    1W        W48205  17.128  25.605   2.707  0.1606 -0.0282 -0.0894
    1W        W48206  20.227  26.057   0.904 -0.4251  0.0741 -0.2518
    1W        W48207   1.071  14.041   6.315 -0.0892 -0.0598  0.1626
    1W        W48208  21.797  30.121   0.678 -0.1982 -0.1095  0.2433
    1W        W48209  29.512  14.420   6.403 -0.2002  0.1104 -0.2696
    1W        W48210  15.901  15.177   8.629 -0.2158 -0.3307 -0.3011
    1W        W48211  27.058  23.766   8.718  0.2270 -0.2028  0.0269
    1W        W48212  17.405   7.292   8.283 -0.0651 -0.0355  0.1438
    1W        W48213  19.134  23.611   3.162 -0.1764  0.0371  0.0542
    1W        W48214  22.871   2.761   8.559  0.0423 -0.2246 -0.2596
    1W        W48215  30.111  26.328   2.090  0.0710  0.0635  0.2559
    1W        W48216  15.887  20.267   8.130  0.0248 -0.2659  0.0639
    1W        W48217  11.714  17.166   8.375 -0.2149 -0.1426  0.0233
    1W        W48218   6.906  16.822   1.604 -0.0475 -0.0221 -0.0634
    1W        W48219  18.765  11.986   7.890  0.1939 -0.1316  0.1974
    1W        W48220   8.753  20.359   7.779  0.1481  0.0291 -0.1735
    1W        W48221   2.445  26.602   8.493 -0.0365 -0.4061 -0.2689
    1W        W48222  20.944  26.583   1.041 -0.1904 -0.0333 -0.0459
    1W        W48223   2.650  14.081   9.170 -0.0446  0.0129  0.2069
    1W        W48224  12.279  28.309   7.599 -0.0838 -0.1606  0.1918
    1W        W48225  16.164  13.493   0.315  0.0121  0.0321  0.0363
    1W        W48226  25.422  24.837   1.263 -0.3052 -0.0123 -0.2580
    1W        W48227  17.786  29.467   8.235  0.1429 -0.0107 -0.5488
    1W        W48228  16.250   2.253   2.545 -0.3737 -0.2161 -0.2147
    1W        W48229  22.000  21.687   1.011  0.0927  0.0895  0.0899
    1W        W48230   0.451   7.297   1.867 -0.1712  0.2276 -0.0216
    1W        W48231  24.517   5.681   0.561  0.0466 -0.1173  0.0187
    1W        W48232   3.720   7.722   2.873 -0.3133 -0.0311  0.3933
    1W        W48233  28.442   2.743   1.751  0.1880 -0.1587  0.0543
    1W        W48234  17.326  11.869   2.126  0.1171  0.2709  0.2983
    1W        W48235  22.537  28.128   7.888 -0.0817 -0.0211  0.1939
    1W        W48236   1.001  13.522   6.209  0.1390 -0.1121 -0.0599
    1W        W48237  21.210   4.662   3.270  0.3000  0.1314 -0.3752
    1W        W48238   0.950   0.767   0.578  0.0175 -0.1214 -0.0326
    1W        W48239  16.222  19.508   0.099  0.1112 -0.1243  0.0275
    1W        W48240  13.852  15.397   8.330 -0.4186 -0.3053  0.0823
    1W        W48241  24.464  28.256   0.069 -0.1417 -0.3101  0.0052
    1W        W48242  10.559   6.992   0.523 -0.1125  0.4539  0.0953
    1W        W48243  12.720  23.427   6.802  0.3622  0.0999 -0.1812
    1W        W48244  22.913  23.284   0.533 -0.0265 -0.0182 -0.1275
    1W        W48245  27.929   9.333   7.756 -0.2377  0.1580  0.0595
    1W        W48246  24.342   5.553   3.675 -0.2233 -0.0867 -0.2233
    1W        W48247  13.456  13.886   7.323 -0.0059  0.2070 -0.2116
    1W        W48248   8.260  14.468   1.594 -0.0882  0.1198 -0.2528
    1W        W48249   1.928   9.387   2.073  0.1090 -0.0819  0.4422
    1W        W48250   4.069  26.502   8.743 -0.3607  0.0803 -0.1712
    1W        W48251   9.940   9.583   7.993 -0.1777 -0.2641  0.0610
    1W        W48252   6.025   0.785   2.983 -0.0767 -0.1124 -0.1031
    1W        W48253  10.098  17.482   8.970  0.2219 -0.2466  0.0151
    1W        W48254  16.946  11.203   8.701  0.0731 -0.0089 -0.3867
    1W        W48255  19.049   5.393   7.985  0.2417  0.1518 -0.1896
    1W        W48256  22.884  11.894   1.041  0.0350  0.0206  0.0868
    1W        W48257  19.013  21.401   8.761 -0.2834 -0.0383  0.3012
    1W        W48258   1.801  27.549   8.512 -0.0387 -0.1594 -0.1094
    1W        W48259   3.331  16.224   6.502  0.1074 -0.1960 -0.1834
    1W        W48260  11.300   0.459   0.808  0.2029 -0.0112 -0.0374
    1W        W48261   1.212   4.782   3.481  0.3147  0.1670  0.1485
    1W        W48262  20.381   8.539   1.019 -0.0338 -0.0008  0.0202
    1W        W48263  28.298  26.183   7.106  0.1473  0.1204  0.0633
    1W        W48264   5.137  10.925   0.986 -0.2120 -0.1283  0.1560
    1W        W48265  17.738   0.479   2.075 -0.0935  0.1459  0.2831
    1W        W48266  29.850  11.795   8.517  0.2464 -0.2488 -0.0619
    1W        W48267   1.244  20.040   8.561 -0.1839  0.1086 -0.0893
    1W        W48268   3.225  13.900   1.757  0.2994 -0.0246  0.1618
    1W        W48269  24.202  23.835   0.451 -0.0926 -0.2332 -0.3397
    1W        W48270  18.096   2.408   0.098 -0.3056 -0.1126 -0.2174
    1W        W48271  12.024  21.335   1.683  0.0776 -0.2162  0.0561
    1W        W48272  19.493  26.177   8.026 -0.2685 -0.1662 -0.4791
    1W        W48273  13.413  21.944   0.409 -0.0713 -0.0688  0.0333
    1W        W48274   9.849  28.103   8.270 -0.2244  0.0799 -0.0453
    1W        W48275  25.102  20.608   8.905 -0.0987 -0.0402 -0.1033
    1W        W48276  24.339  17.623   5.750 -0.2674  0.0900 -0.3209
    1W        W48277   8.447   3.593   9.363  0.0353 -0.0395  0.1875
    1W        W48278  20.788  24.664   2.652  0.0137 -0.0181 -0.2471
    1W        W48279   2.871  16.307   8.263  0.1834 -0.1995  0.0161
    1W        W48280  11.127  27.913   6.994  0.2067  0.2966  0.1801
    1W        W48281  29.283   6.468   1.584  0.1881  0.0960  0.0959
    1W        W48282   1.244  23.684   8.797  0.2537 -0.3379  0.2141
    1W        W48283   9.661  13.193   1.264 -0.0607 -0.1224  0.0359
    1W        W48284  18.281  11.018   6.915  0.2967  0.1696  0.0184
    1W        W48285  14.479   0.368   3.112 -0.1734 -0.1452  0.0104
    1W        W48286   4.333   6.612   0.064 -0.0101 -0.0359  0.1210
    1W        W48287  13.687  11.343   7.118 -0.1682 -0.0860 -0.0783
    1W        W48288   0.599  18.708   7.132 -0.0051 -0.0053 -0.0970
    1W        W48289  24.638  21.638   2.148 -0.1055  0.1675  0.1773
    1W        W48290  11.664  18.695   7.661 -0.3591 -0.2752  0.1131
    1W        W48291  10.625  14.300   0.668 -0.1069  0.1458  0.0829
    1W        W48292  18.723   3.011   1.882 -0.2834  0.0082 -0.0034
    1W        W48293   0.940   6.462   2.173 -0.2400 -0.0311  0.0090
    1W        W48294  13.509   9.673   2.106  0.0612  0.0821  0.2138
    1W        W48295   2.093  12.544   7.045 -0.0626  0.0311  0.1351
    1W        W48296  25.462  17.073   0.565  0.1310 -0.0358 -0.1947
    1W        W48297  19.387   4.961   2.562  0.3330  0.2147 -0.0043
    1W        W48298  20.824  18.726   0.035 -0.2561  0.1488 -0.3044
    1W        W48299  10.372   6.961   3.469  0.1211  0.3011  0.0225
    1W        W48300  21.229  19.722   8.318 -0.0113  0.4127 -0.0147
    1W        W48301  29.611  24.747   7.085 -0.1326  0.3164 -0.2323
    1W        W48302   3.935  13.208   0.893 -0.0786 -0.1876 -0.2351
    1W        W48303  23.262  28.302   3.445 -0.1459  0.0947  0.0481
    1W        W48304  26.098  19.266   0.742  0.2186 -0.3278  0.0525
    1W        W48305  28.997  29.409   6.195 -0.2290 -0.1677  0.0021
    1W        W48306  17.096  12.639   1.075  0.1128  0.0040  0.1748
    1W        W48307   8.534   7.763   8.762  0.0170 -0.2383 -0.1396
    1W        W48308  28.581  20.386   1.314 -0.2021 -0.1850 -0.1683
    1W        W48309  27.318  19.290   6.903  0.0226 -0.2338  0.1450
    1W        W48310   8.276  11.726   8.209 -0.0862  0.0238  0.1133
    1W        W48311  16.055  29.126   1.927 -0.1202  0.0614  0.4172
    1W        W48312  11.102  19.186   0.859 -0.2220  0.2017 -0.1133
    1W        W48313   8.300  22.854   0.533  0.1814 -0.1160 -0.3591
    1W        W48314  22.940  27.389   7.841  0.1934 -0.1313 -0.1909
    1W        W48315   9.622  27.111   7.384  0.3075 -0.0850  0.1609
    1W        W48316  25.147  17.789   1.560 -0.0152 -0.2472 -0.1513
    1W        W48317  11.931  26.321   8.839 -0.3587 -0.0128 -0.0392
    1W        W48318  26.921  26.993   9.351 -0.1117 -0.1277  0.0004
    1W        W48319   4.721   9.642   2.234 -0.0742 -0.0619 -0.0468
    1W        W48320   9.960  24.587   6.572 -0.1387  0.2486  0.0278
    1W        W48321  15.913   0.145   8.726  0.2140 -0.0896  0.2606
    1W        W48322  20.828  28.421   2.114 -0.2039 -0.0295  0.1383
    1W        W48323   0.373   5.682   7.807 -0.2205 -0.2835  0.2308
    1W        W48324  30.072   3.570   1.143 -0.2857 -0.2955 -0.2782
    1W        W48325  23.989  11.738   1.083 -0.0075  0.3837  0.1539
    1W        W48326  18.225  21.434   6.809 -0.1762  0.2139 -0.1025
    1W        W48327   0.851  16.419   5.750  0.0549 -0.1018  0.0677
    1W        W48328   5.455  23.064   6.502 -0.1105  0.2471 -0.2479
    1W        W48329   6.542   8.601   3.585 -0.0381 -0.0479 -0.4772
    1W        W48330  22.117  27.171   7.034 -0.0047 -0.0325 -0.0140
    1W        W48331  23.847  18.259   1.016  0.6272 -0.0255  0.2172
    1W        W48332   0.381  27.981   0.415  0.1852  0.0874  0.2613
    1W        W48333   3.390  25.306   1.161  0.1632 -0.0043  0.3176
    1W        W48334  17.176  30.113   2.120  0.2777 -0.2121  0.0570
    1W        W48335  18.758   7.064   8.705  0.1330  0.3013 -0.1943
    1W        W48336   1.204   6.010   8.389 -0.1804 -0.0983  0.0660
    1W        W48337   3.058  17.248   5.029  0.0921  0.1596 -0.0515
    1W        W48338  20.991   8.997   7.726 -0.1484  0.2461  0.1042
    1W        W48339   1.426   6.636   7.944 -0.0923  0.1538 -0.0824
    1W        W48340   6.441  14.015   1.396 -0.1209 -0.3886 -0.1645
    1W        W48341  23.907  10.598   6.806 -0.0180  0.0831 -0.1871
    1W        W48342   7.397   6.494   7.559  0.3356  0.2307 -0.0554
    1W        W48343   7.893  28.655   1.673 -0.0528 -0.0102  0.0284
    1W        W48344  23.416  18.199   1.820 -0.2007  0.2359 -0.2097
    1W        W48345   6.078  12.512   2.754 -0.1400 -0.0276  0.4120
    1W        W48346  26.293  12.012   6.840 -0.2209  0.1276  0.1181
    1W        W48347  27.323  29.959   6.903 -0.0404  0.0469 -0.0993
    1W        W48348  17.543  12.033   1.550 -0.0625  0.1087 -0.0609
    1W        W48349   8.995  19.032   0.623 -0.1474 -0.0555 -0.3244
    1W        W48350  16.906   1.771   3.239  0.2897  0.2043 -0.0080
    1W        W48351  27.349  12.460   7.952 -0.0829 -0.1101  0.5416
    1W        W48352   8.368   3.126   9.370 -0.0143  0.1505 -0.0454
    1W        W48353  14.992   5.213   2.355  0.1437 -0.0231 -0.1384
    1W        W48354  24.874  19.274   6.736 -0.2663 -0.0128  0.0761
    1W        W48355  25.513  13.030   7.584 -0.1669  0.1616 -0.0844
    1W        W48356   9.747  13.158   8.385 -0.1700  0.0540  0.1163
    1W        W48357  19.780   0.909   2.211 -0.1734 -0.1783 -0.0858
    1W        W48358  15.713  16.351   7.126 -0.1261  0.1496  0.1646
    1W        W48359   7.727  26.053   8.245 -0.1436  0.0068 -0.4501
    1W        W48360   0.463  20.348   7.315  0.1474 -0.0923 -0.1675
    1W        W48361   4.905   8.492   0.330  0.0671  0.1852 -0.1628
    1W        W48362   8.533  10.597   0.352  0.1418  0.0261 -0.1195
    1W        W48363   6.181  25.740   0.775 -0.0840 -0.0449  0.0314
    1W        W48364   8.885  26.995   1.680  0.2294  0.3727 -0.0600
    1W        W48365   4.000   8.711   7.574  0.1013 -0.2798 -0.1005
    1W        W48366  22.913   2.194   7.678  0.1698 -0.3961  0.2141
    1W        W48367  14.552   4.537   8.637 -0.1298 -0.0063  0.1807
    1W        W48368  26.420   5.524   1.602 -0.1071 -0.0179  0.1620
    1W        W48369   3.476  11.533   8.363  0.0069  0.1237 -0.1130
    1W        W48370   7.240  12.785   3.424  0.2669  0.1601  0.0400
    1W        W48371   8.177   2.011   8.229 -0.0795  0.0155  0.1056
    1W        W48372  28.872  18.567   8.060  0.0382  0.2280  0.0330
    1W        W48373   7.591   5.018   2.598  0.1193  0.1355 -0.1006
    1W        W48374   7.189   0.761   2.377  0.2423  0.1092 -0.0909
    1W        W48375   0.384   5.251   1.626  0.0093  0.2117 -0.0252
    1W        W48376   5.502   8.936   7.113 -0.1222  0.3212 -0.0099
    1W        W48377  17.420  18.972   7.866  0.5323  0.2601 -0.0414
    1W        W48378  29.235  17.097   8.487  0.0950  0.1865  0.0274
    1W        W48379  15.305  29.540   1.825  0.0160  0.0488 -0.2830
    1W        W48380  17.729   3.724   1.026  0.0018 -0.0702  0.0821
    1W        W48381  15.373  15.913   0.062  0.1027 -0.2101  0.2366
    1W        W48382  20.086   4.858   0.401  0.0570 -0.0569  0.2198
    1W        W48383  19.260  12.099   1.651  0.2508  0.0305  0.1747
    1W        W48384  20.128   5.717   0.061 -0.2381 -0.0479  0.0967
    1W        W48385  16.563  23.656   2.594 -0.2105  0.3054  0.2910
    1W        W48386   8.740  27.808   2.401 -0.2091 -0.0687 -0.2603
    1W        W48387  25.631   2.462   9.188  0.4194 -0.1679  0.2221
    1W        W48388  25.033  24.272   2.387 -0.0363  0.2216  0.2632
    1W        W48389  19.582   1.337   7.531 -0.1425 -0.0410 -0.0637
    1W        W48390  19.540  12.328   9.301  0.3302 -0.3045 -0.2294
    1W        W48391  20.905   0.412   1.307  0.0046  0.0464 -0.2858
    1W        W48392  15.336  20.571   9.362  0.0727  0.4481  0.0203
    1W        W48393  15.080   1.708   3.306 -0.0029  0.0207  0.0179
    1W        W48394  20.631  12.096   0.913  0.0726  0.1062  0.0328
    1W        W48395  28.352  23.484   5.949 -0.0955 -0.0026  0.0927
    1W        W48396  16.515  18.330   1.531  0.0860 -0.2471 -0.0471
    1W        W48397  27.738   7.829   1.560  0.2089  0.1442 -0.0776
    1W        W48398   1.462   6.095   6.909 -0.0669 -0.0456  0.0605
    1W        W48399  27.951   9.711   8.165  0.2316 -0.1503 -0.0798
    1W        W48400  11.631   2.223   2.280  0.0789 -0.1583 -0.2043
    1W        W48401  29.779  22.183   7.910  0.1507 -0.0047 -0.0953
    1W        W48402  25.702  26.082   0.555 -0.1117 -0.2319  0.1215
    1W        W48403  10.553  11.749   2.025 -0.3860  0.2230 -0.3525
    1W        W48404   7.034  12.643   2.958  0.0368  0.0665 -0.0044
    1W        W48405   8.001   6.470   9.297  0.1762  0.1233 -0.1465
    1W        W48406   6.310  28.321   2.672  0.2336  0.1774 -0.0959
    1W        W48407  30.056   9.723   7.302 -0.0444 -0.0966 -0.0090
    1W        W48408   9.530  11.412   0.176 -0.0968  0.0758 -0.2535
    1W        W48409  17.842   6.601   8.433 -0.0346 -0.5640  0.1707
    1W        W48410  10.902   7.547   2.446 -0.1346  0.2458  0.1555
    1W        W48411   2.582   0.608   9.062 -0.0151  0.1954 -0.2288
    1W        W48412   2.849   4.191   3.263 -0.1557 -0.1016  0.1201
    1W        W48413  11.191  10.673   9.187 -0.1780  0.2932 -0.1995
    1W        W48414  23.016   6.950   0.354 -0.3851 -0.0087 -0.2448
    1W        W48415  16.984  21.375   9.018 -0.2446 -0.0892 -0.2589
    1W        W48416   8.857  21.232   9.125 -0.0540 -0.0341  0.1413
    1W        W48417  25.948  28.315   8.865 -0.3288  0.0722  0.0365
    1W        W48418  17.192   8.216   8.064  0.2718 -0.4003 -0.1630
    1W        W48419  10.427  29.784   0.788 -0.1702  0.0350  0.0038
    1W        W48420  29.652  16.159   8.754 -0.4841 -0.0669 -0.1486
    1W        W48421   1.098  28.269   0.556  0.0513  0.0700 -0.0947
    1W        W48422  25.302  14.545   1.704 -0.1689 -0.1144  0.2671
    1W        W48423  28.330  24.564   7.338  0.0461  0.1827 -0.1105
    1W        W48424  21.133  14.243   0.988 -0.1573 -0.0116  0.0107
    1W        W48425  14.032   3.545   3.448 -0.0432 -0.2829  0.3709
    1W        W48426  11.474  29.547   0.198 -0.1792  0.2174  0.0055
    1W        W48427   4.574  29.114   0.022  0.5062 -0.3651 -0.3188
    1W        W48428  21.274  24.160   2.033  0.1087 -0.0603 -0.0956
    1W        W48429  15.702  13.786   0.450  0.1909 -0.1410  0.0057
    1W        W48430  20.992  13.121   0.080 -0.1541 -0.0731 -0.0178
    1W        W48431  10.006  24.347   5.664 -0.0964 -0.0215 -0.0815
    1W        W48432  18.787  12.804   1.653 -0.0349  0.3806 -0.1368
    1W        W48433   3.041  17.263   8.066 -0.0169 -0.1399  0.0753
    1W        W48434  17.623   3.831   2.481 -0.0417  0.1526  0.0534
    1W        W48435  24.835  20.729   8.517 -0.1203 -0.3664  0.2728
    1W        W48436  12.591   9.764   0.799 -0.1213 -0.0441  0.1167
    1W        W48437   4.191   2.575   8.052  0.1645 -0.0796 -0.0196
    1W        W48438  20.030  19.651   1.894  0.0687  0.1629 -0.1433
    1W        W48439  14.835  12.656   0.783 -0.0837 -0.3804  0.1684
    1W        W48440  21.757  29.000   8.909  0.0929 -0.1541 -0.0433
    1W        W48441  18.979   7.255   7.346  0.0215  0.1868  0.0046
    1W        W48442  23.858  18.705   1.436 -0.1587  0.2564  0.0782
    1W        W48443   5.671   8.894   7.867  0.3996 -0.1312  0.0480
    1W        W48444  29.746  30.117   3.551  0.1481 -0.1156 -0.0835
    1W        W48445  27.772  21.853   1.112  0.0225 -0.0773  0.1013
    1W        W48446   2.550  21.652   0.120  0.2029 -0.1264  0.1710
    1W        W48447  24.920  26.930   3.510 -0.0114  0.2513 -0.4080
    1W        W48448  29.356   4.479   0.251  0.3912 -0.0259 -0.2304
    1W        W48449  29.177  17.289   6.245 -0.0981  0.0851  0.0929
    1W        W48450   5.129   5.630   3.058  0.1106 -0.0945 -0.3151
    1W        W48451  23.922   4.819   2.373  0.3272 -0.0180 -0.0730
    1W        W48452  22.415  24.122   2.904  0.0684 -0.1193  0.1073
    1W        W48453   9.518  19.702   1.141 -0.1376 -0.0629 -0.3431
    1W        W48454  27.109  10.963   8.547  0.3037 -0.2082 -0.0658
    1W        W48455  20.008  19.727   2.376 -0.0694 -0.1201  0.3308
    1W        W48456  29.684  12.606   7.989 -0.1591 -0.3303 -0.1002
    1W        W48457  17.497  19.776   8.926  0.0216 -0.0131 -0.2824
    1W        W48458  22.597  11.692   7.304  0.0253 -0.0341 -0.3752
    1W        W48459   6.011   2.553   8.146 -0.0570  0.1086 -0.0948
    1W        W48460  25.365  27.982   0.483  0.2849  0.3387 -0.1365
    1W        W48461  12.690  16.368   8.715  0.0864  0.0797 -0.1983
    1W        W48462  22.311   7.920   8.892  0.0767  0.0355  0.2014
    1W        W48463   0.008  19.063   1.483  0.0052 -0.0520 -0.0416
    1W        W48464  26.335  12.396   7.278 -0.3947 -0.0830  0.2172
    1W        W48465  11.104   2.570   3.067 -0.0303 -0.2716 -0.3657
    1W        W48466  29.651   7.652   6.837  0.1214  0.0595 -0.0099
    1W        W48467  23.027   0.095   2.076 -0.0391 -0.1851 -0.0043
    1W        W48468  30.016  10.846   6.899  0.3764 -0.0414  0.5641
    1W        W48469  12.681  18.673   8.040  0.0720 -0.0193  0.1584
    1W        W48470  15.701  27.852   1.441  0.0966  0.1061 -0.1353
    1W        W48471  17.160  17.654   0.121 -0.2164 -0.1235 -0.2014
    1W        W48472  11.418  24.612   0.839  0.3336 -0.0667  0.2738
    1W        W48473  16.249  15.011   1.670  0.1011 -0.0791  0.2343
    1W        W48474   3.880  27.361   2.863 -0.2237 -0.1582 -0.0376
    1W        W48475   1.220  15.684   9.138  0.1822 -0.0056 -0.1186
    1W        W48476  27.278  16.222   5.631 -0.2176  0.1030 -0.3369
    1W        W48477  18.525  29.686   2.597 -0.0637  0.2484 -0.3561
    1W        W48478  26.993   3.916   1.416 -0.1791  0.0212  0.5144
    1W        W48479  11.997   6.328   8.686 -0.1611 -0.4542  0.0622
    1W        W48480  24.009  26.848   7.739  0.2977  0.3805  0.0664
    1W        W48481   2.302  21.102   1.083  0.0589 -0.2265  0.4812
    1W        W48482  13.540  23.972   8.264 -0.0878  0.0336 -0.0818
    1W        W48483  27.913  20.916   9.200  0.0560 -0.1316 -0.1106
    1W        W48484   8.127  15.200   7.068  0.0146  0.0776 -0.0807
    1W        W48485   1.011  28.986   2.522 -0.1063  0.0575 -0.0233
    1W        W48486  22.189  17.167   8.605  0.2024 -0.0336 -0.1279
    1W        W48487  13.788  10.749   7.298  0.0102 -0.2543 -0.1310
    1W        W48488  23.410  21.248   9.308  0.0786  0.0550 -0.0281
    1W        W48489   1.857   7.500   8.833  0.4362 -0.0490  0.0592
    1W        W48490  11.548  18.417   9.319  0.2138  0.1784  0.1517
    1W        W48491   8.409   1.714   1.913 -0.0384 -0.1965  0.3388
    1W        W48492   4.470  10.497   8.159  0.1456 -0.1184  0.0066
    1W        W48493   5.853  25.250   8.554 -0.3326  0.0816  0.0145
    1W        W48494  25.351  15.353   9.224  0.0124 -0.1494  0.1418
    1W        W48495  18.774  24.565   2.058  0.0996 -0.1974 -0.0406
    1W        W48496  19.745  10.353   7.325 -0.0215 -0.2120  0.0045
    1W        W48497  17.806  12.933   1.337 -0.1007  0.0450  0.0484
    1W        W48498   1.327   9.810   6.494  0.0345  0.0941  0.0428
    1W        W48499  25.318  23.203   7.561  0.3410 -0.1092 -0.0580
    1W        W48500  10.814  25.881   8.132 -0.0881 -0.0252  0.0975
    1W        W48501   8.212   8.236   8.057 -0.0465  0.0612 -0.0249
    1W        W48502   4.889   7.374   1.879  0.0515 -0.2403  0.4587
    1W        W48503  29.523   9.805   9.377 -0.2578  0.4307 -0.2131
    1W        W48504  24.562   1.127   7.392  0.0826 -0.1460  0.1380
    1W        W48505   9.460  20.580   1.065 -0.2903  0.3545 -0.0070
    1W        W48506  17.674   2.444   8.377  0.0751 -0.1213 -0.2014
    1W        W48507  19.746  14.649   7.708  0.2223 -0.0014  0.1055
    1W        W48508   8.127   2.482   8.088  0.0276  0.0646 -0.4245
    1W        W48509  27.486  27.932   2.559 -0.1350 -0.0662  0.2089
    1W        W48510  29.509  22.619   7.023 -0.2947 -0.0944  0.6051
    1W        W48511  28.860  10.775   1.464  0.0118 -0.0739 -0.0631
    1W        W48512  13.344  26.946   8.906  0.2250 -0.6736 -0.1372
    1W        W48513   0.443  10.159   6.370 -0.1579 -0.0874  0.1412
    1W        W48514  21.330   1.483   8.046  0.0453  0.0932  0.1305
    1W        W48515   1.511   1.891   0.718  0.0751 -0.1576 -0.2669
    1W        W48516   0.999  28.100   3.680  0.1355 -0.0015 -0.0200
    1W        W48517  24.691  15.764   8.939 -0.0397 -0.2800  0.0610
    1W        W48518  13.441   4.030   7.942  0.1140  0.4794  0.3043
    1W        W48519  15.577   3.956   1.124  0.2069 -0.1829  0.2196
    1W        W48520  18.951  28.449   1.809 -0.0609 -0.2922 -0.0070
    1W        W48521   1.869  29.912   7.053  0.0079 -0.0483  0.4660
    1W        W48522  28.378  29.661   1.325  0.1971 -0.0278  0.1048
    1W        W48523  26.745  22.847   0.484  0.4506  0.1758 -0.1170
    1W        W48524  16.165   9.312   1.159 -0.0746 -0.2972  0.3345
    1W        W48525   5.931   6.935   7.355 -0.0344 -0.0082  0.4146
    1W        W48526   4.004  25.060   5.841 -0.2169  0.1299  0.1488
    1W        W48527  14.902  22.823   2.110 -0.0639 -0.2070  0.2082
    1W        W48528  11.733  28.782   3.342 -0.1165  0.0495  0.3461
    1W        W48529  17.604  21.792   2.828  0.2046  0.3836 -0.1116
    1W        W48530  25.726   6.769   0.932  0.3245  0.0460  0.4890
    1W        W48531  28.434  20.636   7.755  0.1128 -0.1126  0.1656
    1W        W48532  29.456   7.089   0.875  0.1034 -0.0339  0.1132
    1W        W48533  11.995  11.310   0.487  0.1700  0.0924  0.1636
    1W        W48534  13.922   6.464   2.216 -0.2145 -0.1797 -0.0079
    1W        W48535  16.435   5.299   0.525 -0.3776 -0.0368  0.2241
    1W        W48536  25.014  29.788   1.545 -0.1424  0.1475  0.1878
    1W        W48537  13.101  17.248   7.560  0.0555 -0.3265  0.0739
    1W        W48538  29.920   7.213   1.841 -0.2400 -0.0256  0.0049
    1W        W48539  24.293   0.332   1.477 -0.1077  0.1532 -0.1724
    1W        W48540   1.571  17.963   8.058 -0.2135  0.1352 -0.1992
    1W        W48541  28.716  10.066   0.681  0.1451  0.0099  0.1619
    1W        W48542  10.801   1.309   1.375 -0.3122 -0.4364 -0.0663
    1W        W48543  26.201   0.078   6.372 -0.0664 -0.3680 -0.1031
    1W        W48544   4.663   0.499   4.034  0.3454  0.1826  0.3780
    1W        W48545   2.351  11.286   1.455  0.1564  0.1408  0.2483
    1W        W48546  23.740  26.924   1.942  0.0085 -0.1491  0.3487
    1W        W48547   2.823   3.167   1.025 -0.0163 -0.2317  0.2072
    1W        W48548  10.484  18.984   8.500 -0.1570  0.0194  0.0092
    1W        W48549  12.920  11.446   0.595  0.0765 -0.0668 -0.2028
    1W        W48550   4.740  12.269   2.821 -0.0361 -0.1930  0.0769
    1W        W48551  27.472   1.440   7.951  0.1021  0.1050  0.0758
    1W        W48552  11.223   1.156   3.326 -0.0626  0.0889  0.3264
    1W        W48553  10.661   5.972   1.645  0.1158  0.2233 -0.1499
    1W        W48554  25.335  25.466   0.033 -0.0581 -0.0814 -0.6175
    1W        W48555  22.387   9.241   2.605 -0.2299 -0.1110 -0.0736
    1W        W48556  28.198   9.820   1.644 -0.1311 -0.1376  0.0552
    1W        W48557  28.313  20.964   0.073 -0.2000  0.2463 -0.0046
    1W        W48558  17.539  27.824   1.061  0.4261 -0.2708  0.0770
    1W        W48559   2.114  14.316   7.402 -0.1585  0.1912  0.2437
    1W        W48560   2.701  20.404   8.149 -0.0534 -0.0807  0.1588
    1W        W48561  11.599   5.913   1.539  0.0844 -0.0059  0.2061
    1W        W48562  10.892   2.129   8.790  0.2729  0.2766  0.3648
    1W        W48563  15.849   6.430   0.857  0.0012  0.0724 -0.0306
    1W        W48564   6.712  17.498   7.631 -0.2608 -0.1173  0.1927
    1W        W48565  23.506  28.462   2.606  0.1257  0.1176 -0.0397
    1W        W48566   0.598   5.203   7.269 -0.1256 -0.1737  0.0813
    1W        W48567   7.531  29.730   1.714  0.0275 -0.3121  0.2111
    1W        W48568  18.088  19.189   2.036 -0.0035 -0.1275 -0.2142
    1W        W48569   7.851   3.903   8.808  0.0897 -0.0563 -0.3256
    1W        W48570  28.476  12.645   6.400 -0.1919  0.2239  0.0520
    1W        W48571  26.616  18.195   9.048  0.1462 -0.0131 -0.2133
    1W        W48572  15.833  13.822   8.735  0.0144  0.1743  0.2489
    1W        W48573  16.831  19.084   0.737 -0.0321  0.1277 -0.3411
    1W        W48574   7.092   6.374   8.392  0.1945  0.1260 -0.0435
    1W        W48575   9.285  25.355   0.529  0.3887 -0.0928 -0.1000
    1W        W48576  28.034  21.269   0.311 -0.0042  0.3311 -0.0089
    1W        W48577   4.235  26.730   1.103  0.0413 -0.0180  0.5363
    1W        W48578   6.228  15.928   7.912  0.0845  0.0576  0.2496
    1W        W48579  12.564  18.609   1.730  0.3821  0.2552  0.0307
    1W        W48580   4.880   2.912   1.731  0.1894 -0.0219 -0.1153
    1W        W48581  12.159  24.371   5.980 -0.1478  0.1519 -0.1425
    1W        W48582  28.229  26.404   0.808 -0.0157  0.2368  0.0050
    1W        W48583  22.815  28.400   1.464  0.0257  0.0364  0.0435
    1W        W48584  24.081   0.732   7.973 -0.2408 -0.0079  0.0327
    1W        W48585  24.071  18.723   6.563 -0.1003  0.1961  0.4146
    1W        W48586  21.511  17.733   7.922 -0.0360 -0.0581 -0.0385
    1W        W48587   8.641   5.325   1.731  0.2281 -0.1498 -0.0880
    1W        W48588  17.442  29.564   8.764 -0.1849  0.1393  0.1678
    1W        W48589  21.662  13.632   2.103 -0.0123 -0.0296 -0.1127
    1W        W48590  22.224  12.500   7.108 -0.0984 -0.1025  0.1388
    1W        W48591   5.251   2.680   1.046 -0.2441 -0.3301 -0.0039
    1W        W48592  20.855  25.293   0.584  0.0149  0.1007  0.0369
    1W        W48593  17.991   4.133   2.746  0.2059  0.1591 -0.1630
    1W        W48594  18.945  22.940   7.120 -0.0494 -0.3039  0.1129
    1W        W48595  25.582  19.483   1.359  0.1243  0.1597  0.0377
    1W        W48596  11.298  25.544   0.544  0.0199  0.0672  0.1285
    1W        W48597  27.969  26.088   8.399  0.0949  0.0020  0.1215
    1W        W48598  23.550  25.870   1.899 -0.2050  0.1114 -0.1921
    1W        W48599   7.575  24.917   9.150  0.2354  0.0417 -0.0204
    1W        W48600  21.650  19.993   8.053 -0.1729 -0.0194 -0.2330
    1W        W48601   5.178  25.031   6.752 -0.4279 -0.1907  0.2598
    1W        W48602  19.715  15.809   2.083 -0.2594 -0.0638 -0.0801
    1W        W48603   6.825  26.038   8.847  0.0875  0.3846 -0.0696
    1W        W48604   3.405  17.033   1.227 -0.1871 -0.2940  0.1886
    1W        W48605  22.938   6.623   0.757 -0.1644 -0.3741 -0.0046
    1W        W48606  14.262  30.065   2.919 -0.0487  0.2437  0.1702
    1W        W48607   1.791  28.213   7.671  0.1764  0.0109 -0.1578
    1W        W48608  15.548  29.640   7.724 -0.0501 -0.1982 -0.2616
    1W        W48609  11.562   7.701   2.895 -0.3917  0.3054 -0.1755
    1W        W48610  13.257   4.358   0.300  0.0740 -0.2568 -0.2824
    1W        W48611   2.371   1.420   9.117  0.1378  0.0035  0.1445
    1W        W48612  15.183  27.401   2.185  0.2544 -0.2930 -0.0709
    1W        W48613  13.699  29.341   8.272 -0.0374  0.1623  0.1596
    1W        W48614  18.594  19.520   0.794  0.0928 -0.2168 -0.3266
    1W        W48615  10.101   6.299   6.568  0.1950 -0.0576 -0.0219
    1W        W48616  22.238  22.736   8.299  0.0952 -0.0156  0.1406
    1W        W48617   1.548   5.393   6.925 -0.0100 -0.1546  0.1757
    1W        W48618  21.172  14.952   7.141 -0.0574 -0.0479  0.0405
    1W        W48619   1.989   6.546   7.030 -0.1244 -0.0352 -0.1120
    1W        W48620  17.750   8.754   1.849 -0.0925  0.1142  0.1980
    1W        W48621  23.215  19.397   1.756  0.1128  0.1658  0.1945
    1W        W48622  12.235   1.263   0.604 -0.0702  0.1954  0.3171
    1W        W48623   3.289  14.668   0.002 -0.0420  0.1592 -0.0616
    1W        W48624   5.276  17.498   0.192  0.2035 -0.0486  0.2094
    1W        W48625   7.544   3.503   0.945  0.0763  0.3124 -0.1754
    1W        W48626   5.540  14.394   8.165  0.2313  0.1338  0.1420
    1W        W48627  19.535  17.136   1.166  0.2555  0.3254  0.0495
    1W        W48628  29.136  25.755   7.725 -0.0130 -0.4959 -0.0070
    1W        W48629   4.023   0.394   8.564  0.2933 -0.3734 -0.2161
    1W        W48630  27.583   8.686   7.307  0.0874 -0.0057  0.0376
    1W        W48631   4.210   5.725   0.015  0.0923 -0.5251 -0.0293
    1W        W48632  28.288  18.140   1.041  0.1215 -0.0565  0.0889
    1W        W48633  12.976   7.865   0.850  0.2164  0.2249  0.0077
    1W        W48634  26.792  19.202   7.000  0.1499  0.3294  0.2782
    1W        W48635  29.823  25.344   7.867 -0.2153  0.3618 -0.1429
    1W        W48636  27.748  19.563   5.651  0.0011 -0.0892 -0.1259
    1W        W48637  19.481   0.367   8.575  0.4157  0.0101 -0.1870
    1W        W48638  14.453  29.626   7.583  0.0077 -0.1387 -0.0062
    1W        W48639   7.532   7.234   3.452 -0.0862 -0.5715 -0.3240
    1W        W48640   6.688  23.034   5.901  0.2538  0.2143  0.1544
    1W        W48641   1.217  15.545   7.783  0.0326  0.1107 -0.1568
    1W        W48642  17.138  14.996   7.800  0.1452 -0.1056  0.0230
    1W        W48643  28.317  11.896   8.622 -0.2987 -0.0648 -0.1794
    1W        W48644  19.977  18.612   6.981 -0.1346  0.1323  0.2088
    1W        W48645  26.168  16.192   8.339 -0.1680  0.0886 -0.2623
    1W        W48646  10.944   9.240   1.683  0.0808 -0.2010  0.0174
    1W        W48647   9.669   0.498   7.415 -0.2587  0.1620 -0.1045
    1W        W48648  13.712   1.549   0.195  0.1854 -0.1601 -0.2493
    1W        W48649  25.225  26.507   6.704 -0.0429 -0.2964  0.0135
    1W        W48650  12.631  29.485   7.344 -0.1909  0.0419  0.1938
    1W        W48651   7.358  12.579   9.222 -0.4745  0.1698 -0.0619
    1W        W48652  24.242  20.099   8.820  0.1527  0.0036 -0.0421
    1W        W48653   0.277  26.131   0.170 -0.2704  0.0930 -0.1152
    1W        W48654  13.331   2.406   0.519  0.0090 -0.0680 -0.1065
    1W        W48655  12.668  10.620   1.460  0.0526  0.0836 -0.1180
    1W        W48656  14.680  27.784   8.669 -0.3390 -0.0463  0.1002
    1W        W48657   9.552  15.133   1.257 -0.0464  0.2720 -0.1520
    1W        W48658  10.066  17.733   6.928 -0.0786  0.3637 -0.3028
    1W        W48659   5.015  15.199   6.502 -0.0450 -0.1927 -0.3238
    1W        W48660  18.739  11.904   0.086  0.0171  0.0573  0.0021
    1W        W48661  23.579  24.442   7.256 -0.2701 -0.3876 -0.1431
    1W        W48662  12.828   1.288   3.002 -0.2261 -0.2077  0.2126
    1W        W48663  29.956  10.280   2.035  0.1178 -0.0910 -0.0031
    1W        W48664  17.996  24.226   9.113  0.1427  0.2013  0.0561
    1W        W48665  12.723   8.272   1.152  0.0653 -0.2230  0.4617
    1W        W48666   0.358  18.191   6.957  0.1065  0.1119  0.0589
    1W        W48667  10.265   5.972   7.981  0.0279 -0.0563 -0.0127
    1W        W48668  10.738  25.382   0.215  0.0000 -0.1183 -0.0241
    1W        W48669  14.950  19.375   0.012 -0.0396  0.3377  0.0785
    1W        W48670   8.505  18.480   7.604 -0.0244  0.2456 -0.3596
    1W        W48671  18.618  27.325   6.859  0.5000  0.2196 -0.2259
    1W        W48672   1.675   9.268   1.523 -0.2524  0.0516 -0.1612
    1W        W48673   0.616   0.554   1.868  0.0858 -0.0574  0.1784
    1W        W48674  26.558  23.736   1.868  0.5042  0.2338  0.2012
    1W        W48675  26.484   3.861   1.686 -0.1268 -0.0340 -0.2162
    1W        W48676  23.947  25.083   8.112 -0.0911 -0.5483 -0.2023
    1W        W48677  13.369  25.743   3.034 -0.1343  0.0374 -0.0838
    1W        W48678  19.846   3.101   0.006 -0.4322  0.2404 -0.0786
    1W        W48679   0.772  11.852   0.234  0.1171 -0.3222  0.3394
    1W        W48680  10.238  21.395   2.317  0.2890 -0.3239  0.2450
    1W        W48681  10.047   3.652   2.128  0.1427  0.1803  0.1852
    1W        W48682   8.937  15.878   9.271 -0.0229  0.1138 -0.1120
    1W        W48683  12.787  21.862   0.341 -0.0513 -0.1228 -0.1018
    1W        W48684  20.638   5.323   2.195  0.0949 -0.1732 -0.0412
    1W        W48685  17.937   1.019   3.046  0.1003  0.5566 -0.2484
    1W        W48686   4.310  23.475   5.151  0.1304 -0.1026 -0.3210
    1W        W48687  15.702  28.093   2.746  0.0016  0.2639 -0.0650
    1W        W48688  14.073  24.361   0.536  0.0829  0.0263 -0.1495
    1W        W48689  13.600  28.120   3.716  0.2544 -0.0414 -0.0648
    1W        W48690  23.564   6.424   1.960 -0.1419 -0.0109  0.0235
    1W        W48691   7.023  12.057   8.081 -0.0816 -0.0103  0.0681
    1W        W48692  23.821  21.766   6.543 -0.0162  0.0202 -0.1067
    1W        W48693  21.467  25.148   0.543 -0.0004 -0.1176 -0.0358
    1W        W48694  17.298  11.828   0.468 -0.1608  0.0741 -0.4078
    1W        W48695  12.969   5.279   3.501 -0.1642  0.0068  0.1268
    1W        W48696  23.610  26.116   8.614 -0.0385 -0.1241 -0.1355
    1W        W48697  10.053  26.951   7.554 -0.2044 -0.1945 -0.0263
    1W        W48698  27.293  29.615   9.152 -0.0290  0.0658  0.3847
    1W        W48699  26.141   6.773   8.279  0.0431  0.0720 -0.0375
    1W        W48700  11.238  14.627   9.216  0.0316 -0.0601 -0.0320
    1W        W48701   5.446  12.355   1.272 -0.0877 -0.0146 -0.1743
    1W        W48702  13.406   7.130   0.365 -0.0835  0.0061  0.0686
    1W        W48703   1.696   3.401   0.505 -0.2757 -0.0123  0.1911
    1W        W48704  17.544  28.905   1.796 -0.0085 -0.1775  0.0727
    1W        W48705   4.416  28.029   7.472  0.0200 -0.0569  0.2358
    1W        W48706  28.441   2.291   6.837  0.1339 -0.1039 -0.4107
    1W        W48707  27.304  13.664   7.055  0.4013  0.1765 -0.0439
    1W        W48708   4.129  22.223   0.792 -0.0322  0.3234 -0.0061
    1W        W48709  24.351  15.998   7.785  0.1574 -0.1500 -0.2101
    1W        W48710  26.102  17.984   7.606  0.0245  0.1971 -0.1320
    1W        W48711   6.280   5.896   7.405  0.0196  0.1992 -0.0557
    1W        W48712  17.063   5.963   2.379 -0.1099 -0.1749  0.1583
    1W        W48713   1.969  29.329   3.764 -0.3446  0.0522  0.0569
    1W        W48714  28.302  21.596   0.061  0.0141 -0.1015  0.1618
    1W        W48715   2.783  19.584   0.940 -0.0486  0.0905 -0.0215
    1W        W48716  10.182  15.419   0.360  0.1457 -0.2221  0.0236
    1W        W48717   5.626  11.540   0.617  0.2672 -0.0413 -0.3057
    1W        W48718   2.636  11.660   0.427 -0.0149 -0.1056  0.0883
    1W        W48719  10.628   6.093   3.121 -0.0456  0.1837 -0.0448
    1W        W48720   8.169  15.990   8.202 -0.1934  0.3536 -0.3966
    1W        W48721  17.371  28.293   6.811  0.0994 -0.2015  0.2784
    1W        W48722  15.448   7.494   7.856  0.0774  0.1156  0.1465
    1W        W48723  22.562   6.905   0.532  0.0734 -0.1426  0.1569
    1W        W48724   1.597  13.111   1.461  0.1461 -0.3312  0.1230
    1W        W48725   5.385  10.156   1.050 -0.0101 -0.0057 -0.0938
    1W        W48726  17.430  16.339   8.302 -0.0881  0.1353 -0.0815
    1W        W48727   1.975  26.620   8.270  0.0175  0.0624  0.2221
    1W        W48728   3.663   8.365   9.086  0.0795  0.0735  0.0535
    1W        W48729  24.396   4.100   0.523  0.0329  0.2503  0.1624
    1W        W48730  14.248  27.841   1.435 -0.1013 -0.1228  0.1961
    1W        W48731  27.215  26.822   1.473 -0.1919 -0.2749  0.0669
    1W        W48732  23.546   3.851   1.063 -0.4941  0.2782 -0.4308
    1W        W48733  16.705  20.563   0.160 -0.1224  0.0941 -0.0609
    1W        W48734  12.350  13.252   8.531 -0.2794  0.2386 -0.1009
    1W        W48735  16.839  29.508   7.261  0.0878  0.0151 -0.0133
    1W        W48736  12.489  12.465   7.938 -0.0623  0.0929 -0.1556
    1W        W48737  26.534   6.516   9.178 -0.0695  0.1014 -0.3530
    1W        W48738  14.068  21.603   0.891  0.1391  0.2402 -0.1541
    1W        W48739  19.757  26.004   2.112  0.0380 -0.0847  0.2049
    1W        W48740   6.820  16.553   7.227 -0.0581 -0.3200 -0.1243
    1W        W48741   1.277  18.042   8.946 -0.0453 -0.1351 -0.3442
    1W        W48742   3.643   3.984   8.908 -0.2934 -0.1775 -0.0748
    1W        W48743  14.181  23.769   0.537  0.0840  0.0763 -0.0837
    1W        W48744   0.056  16.537   7.069  0.2766 -0.0006  0.1806
    1W        W48745  27.462   0.031   1.304  0.0889 -0.1508  0.0866
    1W        W48746  20.665  22.203   1.201 -0.0160  0.0653 -0.1684
    1W        W48747  21.492  18.560   2.111  0.0303  0.3813 -0.0752
    1W        W48748  10.942  16.331   1.767 -0.1975  0.1007  0.0230
    1W        W48749   7.272   9.284   1.798  0.0349 -0.0536  0.0599
    1W        W48750  20.543  26.892   1.923  0.0329 -0.0675 -0.2828
    1W        W48751   8.936   5.181   9.404  0.0248  0.0468 -0.0841
    1W        W48752  29.885  27.430   1.145 -0.0632  0.0485 -0.0815
    1W        W48753   1.868  12.675   2.491 -0.1502 -0.0368 -0.0123
    1W        W48754  17.307  27.134   2.613  0.0901 -0.2400 -0.3454
    1W        W48755  25.678  18.279   7.744  0.0534 -0.3533 -0.3122
    1W        W48756  19.294  24.725   2.055  0.0148  0.0178  0.0436
    1W        W48757   3.712  11.245   1.936  0.3458 -0.1963 -0.1239
    1W        W48758   7.502  12.435   2.980 -0.1154  0.1166 -0.0036
    1W        W48759  26.547  19.652   7.866  0.1213 -0.0764  0.1747
    1W        W48760  22.733   3.057   2.069 -0.0445 -0.1275  0.0335
    1W        W48761  18.475  28.334   2.151 -0.2417  0.0550  0.1450
    1W        W48762  19.496  26.689   6.261  0.2893 -0.0829 -0.1521
    1W        W48763  20.072   1.133   0.225 -0.0118 -0.1086 -0.1421
    1W        W48764  27.925  26.281   0.187 -0.5488  0.3369  0.3371
    1W        W48765  19.429   7.457   2.091 -0.0216 -0.1789  0.0990
    1W        W48766  23.886  27.037   2.414 -0.1488 -0.2232 -0.1006
    1W        W48767  13.722  21.703   1.829 -0.2551 -0.3448 -0.0971
    1W        W48768   0.184  15.553   7.091 -0.1061 -0.2553  0.0874
    1W        W48769  23.447  24.142   9.022  0.0130 -0.2006  0.2971
    1W        W48770  22.404  16.820   8.207  0.2185 -0.1403 -0.0670
    1W        W48771  19.204   1.199   1.163  0.1292  0.1576  0.3266
    1W        W48772   8.627  10.606   2.829  0.3316  0.3627  0.1789
    1W        W48773  29.527  24.537   0.499 -0.0936  0.0912 -0.0307
    1W        W48774   1.462   5.397   9.096 -0.0164  0.0479  0.0257
    1W        W48775  18.091  11.965   1.622  0.0754  0.0710  0.2069
    1W        W48776   2.468  20.671   9.297 -0.0725  0.4124 -0.3316
    1W        W48777   6.038  19.475   7.941 -0.0785 -0.1249  0.0706
    1W        W48778   7.109  14.417   0.184  0.1422 -0.0401  0.1954
    1W        W48779  15.977  26.548   1.228 -0.2649 -0.0741 -0.0056
    1W        W48780  29.432   5.984   9.015  0.3758 -0.0155 -0.1482
    1W        W48781   8.574  10.645   1.693  0.0078  0.0075  0.1116
    1W        W48782  29.191   3.132   9.125 -0.0508 -0.0652 -0.2190
    1W        W48783  10.692  11.254   2.157  0.0808 -0.0816 -0.1723
    1W        W48784   3.814   8.803   1.477 -0.0783  0.0570 -0.2428
    1W        W48785  13.506  22.599   7.505  0.3374  0.1679 -0.0103
    1W        W48786  27.125  16.730   1.375  0.0131 -0.1606 -0.0631
    1W        W48787  19.180   0.023   8.850 -0.0283  0.0217 -0.0637
    1W        W48788  25.494  24.808   0.747 -0.0439 -0.0570 -0.0452
    1W        W48789   5.740   4.519   8.372  0.1126 -0.5642  0.0914
    1W        W48790   6.158   4.534   8.662  0.1797 -0.2369  0.2874
    1W        W48791   1.748  12.933   9.229  0.1700 -0.2702  0.1701
    1W        W48792  12.834  22.498   6.848 -0.0535 -0.0293 -0.1055
    1W        W48793  25.713  28.605   8.529 -0.0358 -0.3082  0.2566
    1W        W48794  22.645  11.869   8.228  0.3829 -0.1459  0.1369
    1W        W48795  11.476  20.340   8.551 -0.0199 -0.3967 -0.1567
    1W        W48796   5.010  29.040   4.021 -0.1144 -0.0238  0.2192
    1W        W48797  17.304  12.282   1.858 -0.1016 -0.0953 -0.3980
    1W        W48798   8.789   0.784   0.034  0.0478 -0.3457  0.2489
    1W        W48799  22.136  13.318   9.267 -0.2170 -0.2183  0.1997
    1W        W48800  12.722  18.272   7.701  0.2610  0.2408  0.0141
    1W        W48801  24.362  20.556   8.582 -0.0684 -0.1375  0.1703
    1W        W48802   4.629  28.840   8.229 -0.0249  0.1294 -0.2588
    1W        W48803  25.481   0.829   0.904  0.3061 -0.3739 -0.1884
    1W        W48804  30.066  14.837   6.020 -0.1009 -0.0197  0.2210
    1W        W48805   4.772  20.990   5.805 -0.0859 -0.2643 -0.2947
    1W        W48806   0.638  19.324   0.860 -0.1104 -0.2011  0.1074
    1W        W48807  29.300  11.087   0.227 -0.0994  0.0194 -0.0708
    1W        W48808  10.502  23.152   0.388 -0.0413  0.4104 -0.0601
    1W        W48809  17.927   6.779   8.921 -0.2374  0.1859  0.1275
    1W        W48810  18.305  24.140   2.256  0.0600  0.1826 -0.1029
    1W        W48811  23.179   6.069   7.007 -0.1421  0.0918 -0.4325
    1W        W48812  27.390  20.133   8.895  0.0453 -0.1248 -0.2325
    1W        W48813   4.681   9.355   0.202 -0.2333  0.2356 -0.0758
    1W        W48814   4.524  20.184   1.419  0.0649  0.0506  0.0333
    1W        W48815  16.555   6.949   2.940  0.0204 -0.1606  0.5121
    1W        W48816  10.595   4.808   8.888 -0.1116 -0.2430  0.0123
    1W        W48817  10.493  24.315   1.085 -0.1467 -0.3145  0.2285
    1W        W48818  11.957  23.798   6.610  0.0423 -0.0969  0.0181
    1W        W48819   7.437   1.012   7.580 -0.0275 -0.2510  0.2951
    1W        W48820  10.647   7.163   2.702  0.2326 -0.1327  0.0525
    1W        W48821  11.653   7.769   0.914 -0.4827 -0.1263 -0.1947
    1W        W48822  24.549  11.925   0.182 -0.1140 -0.3018 -0.0947
    1W        W48823  10.317  12.012   0.157 -0.0499 -0.0094 -0.1179
    1W        W48824  17.354  20.782   1.472  0.2959 -0.0522  0.3313
    1W        W48825  24.178  16.178   7.052 -0.0159 -0.0223 -0.0522
    1W        W48826  27.762   0.584   8.067  0.0260 -0.1340  0.0148
    1W        W48827   2.613   4.719   1.946 -0.2171  0.4054  0.0249
    1W        W48828  27.118  27.364   8.057 -0.1142  0.1046  0.0036
    1W        W48829   0.108   7.074   2.158  0.1275  0.0347  0.1297
    1W        W48830  24.642   1.049   2.646 -0.0448 -0.2753 -0.0003
    1W        W48831  28.878   0.798   1.324  0.4674  0.1485  0.2029
    1W        W48832  24.878   2.835   2.394 -0.2553 -0.1607  0.4269
    1W        W48833  17.095  13.796   8.538  0.1950  0.0701 -0.2487
    1W        W48834  28.758   9.003   7.855  0.0218 -0.1169 -0.3070
    1W        W48835  13.423  25.523   7.977 -0.0607  0.0774  0.2591
    1W        W48836  23.526  12.540   0.809  0.0444 -0.0369  0.1738
    1W        W48837   0.666  15.504   0.388 -0.2586 -0.0178 -0.1192
    1W        W48838  13.148   2.609   9.210  0.0232  0.2484 -0.0436
    1W        W48839  20.882  18.583   7.876 -0.2811 -0.2333  0.2009
    1W        W48840   8.938  27.924   1.923  0.1633  0.0625 -0.0007
    1W        W48841  10.118  22.621   0.936 -0.0400 -0.2672 -0.0935
    1W        W48842   8.894  17.596   2.857 -0.1744  0.1803 -0.3614
    1W        W48843   9.394   7.374   0.763  0.1732  0.1002 -0.2825
    1W        W48844  16.452  16.682   7.993 -0.2188 -0.1199 -0.3968
    1W        W48845   5.217  28.125   7.698 -0.0109  0.0417  0.1431
    1W        W48846   5.120   7.971   1.492  0.0577 -0.0735 -0.3215
    1W        W48847  28.187  22.149   1.987 -0.0369  0.0556  0.1537
    1W        W48848  25.791  24.567   1.625 -0.1329  0.1184  0.5290
    1W        W48849  26.864   5.983   7.557  0.1336  0.0861 -0.3487
    1W        W48850  27.196  28.968   8.822  0.0800 -0.1428  0.1599
    1W        W48851  25.646   8.135   6.941 -0.0683  0.0382 -0.1656
    1W        W48852  27.671  15.096   4.962  0.0285 -0.1705 -0.0242
    1W        W48853  13.371   7.397   2.499  0.4165 -0.2709  0.1552
    1W        W48854  22.434   4.139   2.196  0.1600  0.2741 -0.2571
    1W        W48855   0.258  11.821   7.385  0.0921  0.2461  0.3512
    1W        W48856  29.598  14.092   7.396  0.0097 -0.1141  0.1173
    1W        W48857  16.884  22.144   0.410 -0.1229  0.0090 -0.2553
    1W        W48858  12.120   8.845   3.680  0.3479  0.1916  0.0084
    1W        W48859  19.751  23.498   7.313 -0.1149  0.1406  0.1059
    1W        W48860   8.254  18.159   2.327 -0.1778 -0.0009 -0.0968
    1W        W48861  26.234  23.820   7.240  0.0107  0.0742 -0.0792
    1W        W48862  22.493   6.172   7.975 -0.0392 -0.0109 -0.3001
    1W        W48863   2.008  16.935   5.443  0.0021  0.2522 -0.3342
    1W        W48864  17.304   2.451   1.717  0.2425  0.1888  0.4127
    1W        W48865  28.749  26.058   8.546  0.1618 -0.0849 -0.1697
    1W        W48866  19.259   5.943   8.265  0.6187  0.3040  0.0022
    1W        W48867  19.935   0.436   0.961 -0.0137  0.0178  0.2022
    1W        W48868  12.261  20.738   9.075 -0.2937  0.1718  0.3819
    1W        W48869  20.106   3.438   7.976 -0.0303 -0.2687 -0.4508
    1W        W48870   5.998  28.489   1.002  0.3613  0.0612  0.0273
    1W        W48871  21.001  15.886   8.978  0.0795  0.0159  0.0484
    1W        W48872   0.486   7.718   5.923 -0.1339 -0.0379  0.0877
    1W        W48873   0.844  23.082   0.043 -0.3093  0.0131  0.0344
    1W        W48874  16.517  23.885   1.131  0.0854  0.1063  0.0371
    1W        W48875  22.957   7.077   8.621 -0.1806 -0.4149  0.0254
    1W        W48876  19.676  20.781   0.054  0.1895  0.1777  0.0719
    1W        W48877   0.075   5.452   1.140  0.2637 -0.0365 -0.1833
    1W        W48878  18.340  16.734   0.285  0.3062  0.1669 -0.4275
    1W        W48879  10.688   9.301   8.960  0.0652  0.1861 -0.3341
    1W        W48880  10.463  22.337   6.318 -0.1770  0.0361  0.0176
    1W        W48881  13.107  20.647   2.721 -0.1383  0.2156 -0.2269
    1W        W48882  16.672   4.624   8.835  0.2025 -0.2060 -0.0187
    1W        W48883  17.049  25.808   1.719 -0.0586 -0.3781 -0.2291
    1W        W48884  29.640   9.999   7.350  0.2777 -0.3817  0.1147
    1W        W48885  29.771  10.130   6.516 -0.1735 -0.0415 -0.0088
    1W        W48886  19.152   6.755   0.473  0.0925 -0.3425  0.1275
    1W        W48887  22.331   3.942   8.142 -0.3957  0.0792 -0.1791
    1W        W48888   8.325  13.805   7.080  0.2076 -0.3510 -0.0913
    1W        W48889   6.684  10.245   1.001  0.3091 -0.0494 -0.2330
    1W        W48890  26.204  21.165   8.418 -0.1290  0.3154  0.3988
    1W        W48891  14.554  10.659   1.585  0.3450 -0.1223  0.1871
    1W        W48892  26.294  20.944   6.841 -0.0328 -0.2162 -0.1120
    1W        W48893  27.580   9.104   1.291 -0.3800 -0.0245  0.0914
    1W        W48894  29.322  16.197   7.898 -0.1153  0.3405 -0.2140
    1W        W48895  19.427   8.639   8.408  0.0569  0.3669  0.1229
    1W        W48896  28.468   5.198   2.840 -0.2430 -0.1766  0.0172
    1W        W48897   4.566  27.436   7.516  0.0970 -0.0537 -0.0390
    1W        W48898  27.775  29.092   0.475 -0.2696  0.1250 -0.0859
    1W        W48899   9.869  15.072   7.853  0.0714 -0.0270 -0.2548
    1W        W48900  21.732   4.000   7.299 -0.1289 -0.2015  0.4643
    1W        W48901  20.465   8.840   7.506  0.0774 -0.0807 -0.1782
    1W        W48902   4.510  27.415   8.860 -0.0822  0.0045 -0.1669
    1W        W48903  12.416   6.120   8.460 -0.0215  0.2164 -0.1203
    1W        W48904   2.112  27.639   2.503  0.3706 -0.0101  0.0829
    1W        W48905  20.422  16.147   7.703 -0.0842  0.1315 -0.1597
    1W        W48906  28.525   3.149   8.896 -0.0942 -0.3458 -0.2186
    1W        W48907   3.337  13.557   8.470  0.5882  0.1017 -0.1174
    1W        W48908  19.467  19.771   7.356 -0.1371 -0.0269 -0.0497
    1W        W48909  12.728   3.221   0.160 -0.0264  0.2437 -0.0629
    1W        W48910  28.389   9.232   7.561  0.0997  0.0536 -0.2728
    1W        W48911   6.692   2.668   8.233 -0.0296 -0.3423  0.1233
    1W        W48912  20.313   1.778   7.145  0.1911  0.0218 -0.2148
    1W        W48913  14.605   1.998   8.823  0.1261 -0.1830  0.0096
    1W        W48914  17.322   1.343   8.790 -0.1009 -0.0381 -0.1476
    1W        W48915   8.929  12.751   7.478 -0.2866  0.3218  0.2240
    1W        W48916  26.001  13.689   5.934 -0.0838 -0.2014  0.1670
    1W        W48917   2.292   0.200   1.067  0.1437  0.1712 -0.3103
    1W        W48918  11.043   9.566   7.941 -0.0195  0.0535 -0.0334
    1W        W48919  29.911  26.000   1.584  0.2712  0.0379 -0.0267
    1W        W48920  10.154  17.713   7.476 -0.1236 -0.0658 -0.3632
    1W        W48921  12.796  21.010   1.470 -0.0767 -0.0945 -0.2011
    1W        W48922   6.506   0.769   2.779 -0.1217  0.1804  0.2497
    1W        W48923  28.120   2.567   7.704  0.0787  0.2511  0.0187
    1W        W48924   8.592  29.263   9.197 -0.2262 -0.1040 -0.1869
    1W        W48925   7.566   9.579   1.182 -0.1729  0.1158 -0.0920
    1W        W48926  27.663   9.649   8.584 -0.0066  0.2882 -0.2133
    1W        W48927  16.044   1.968   7.683  0.1501 -0.1062  0.0991
    1W        W48928  28.915  24.357   1.683  0.2355  0.0722  0.0664
    1W        W48929  28.617  24.234   0.314  0.1304  0.1243 -0.0113
    1W        W48930  26.227  15.254   4.707  0.3776  0.1061  0.1869
    1W        W48931  22.280  18.533   6.537  0.0343 -0.0584  0.1806
    1W        W48932  19.701  24.921   1.832 -0.2138 -0.0761  0.0271
    1W        W48933   5.092  21.841   9.185  0.0201 -0.1725  0.0480
    1W        W48934  17.995   7.443   0.142  0.2364  0.0819 -0.0860
    1W        W48935  10.904   6.481   1.981  0.0371 -0.3883 -0.3182
    1W        W48936  10.625   2.617   1.251  0.0935 -0.0080  0.1192
    1W        W48937  28.917  23.878   7.239  0.1874  0.1904 -0.0060
    1W        W48938  13.382  17.272   9.272  0.1706 -0.0859  0.1581
    1W        W48939  19.281  11.369   8.926  0.1337  0.3197  0.1524
    1W        W48940  27.908  16.199   9.041 -0.0575  0.2159 -0.2061
    1W        W48941  20.332  10.841   1.308 -0.0020  0.0932 -0.0328
    1W        W48942  19.674   2.653   0.101 -0.0854  0.5152 -0.2679
    1W        W48943   8.026  28.579   7.425  0.2564  0.1260  0.0547
    1W        W48944   3.651  16.708   0.867  0.0916 -0.0041 -0.0655
    1W        W48945   9.884  29.957   9.148 -0.0627 -0.1769  0.1578
    1W        W48946  28.520  19.715   6.441 -0.0918  0.1647  0.1893
    1W        W48947  14.365  16.394   6.922  0.3021 -0.0998  0.0814
    1W        W48948  23.523   3.436   2.724  0.0534  0.1617  0.1586
    1W        W48949   3.625  17.312   8.836  0.0876 -0.3359 -0.0447
    1W        W48950   0.728   3.145   8.880 -0.0457  0.0856 -0.1450
    1W        W48951  12.995   8.871   8.399  0.0159  0.1265  0.0372
    1W        W48952   3.737  16.299   6.161 -0.0391 -0.0801 -0.1245
    1W        W48953  19.053   0.634   7.658 -0.0596  0.0948  0.0709
    1W        W48954   4.847  21.910   1.981  0.0839 -0.0388  0.2043
    1W        W48955   9.281  27.832   1.503  0.0319 -0.0798  0.4214
    1W        W48956   1.621  27.965   1.248 -0.0933  0.1314 -0.0783
    1W        W48957  13.898   8.988   8.879  0.0155 -0.2567  0.3926
    1W        W48958  15.698  26.106   8.484  0.2440 -0.0250 -0.1295
    1W        W48959  17.800   6.910   7.954 -0.0788 -0.0671 -0.0213
    1W        W48960  25.067  26.295   1.913  0.0811 -0.2576 -0.5466
    1W        W48961  11.726   9.638   1.485 -0.1078  0.0285 -0.2689
    1W        W48962  11.188   8.374   2.279  0.1919 -0.1929  0.0834
    1W        W48963  25.199   8.336   6.864  0.1085  0.1950  0.0670
    1W        W48964   9.525   6.686   3.062 -0.0171 -0.0774 -0.1189
    1W        W48965  10.598  12.683   1.297 -0.0807 -0.3378  0.2972
    1W        W48966   8.216  11.583   1.695  0.0428  0.1789  0.3329
    1W        W48967   9.720  25.928   1.790 -0.4935 -0.3488  0.0282
    1W        W48968  17.366  15.892   0.295 -0.0975  0.1639  0.1355
    1W        W48969  27.502  13.254   7.302 -0.0149 -0.1117  0.0486
    1W        W48970  16.776   3.554   9.279 -0.2346 -0.1727  0.1856
    1W        W48971  25.249   1.038   7.570  0.1694 -0.3078  0.1664
    1W        W48972  21.643   1.228   0.384 -0.1014  0.0789 -0.1391
    1W        W48973  26.611  25.530   1.968  0.2546  0.0637  0.0944
    1W        W48974  27.908   1.428   8.322  0.3157  0.3748 -0.2579
    1W        W48975  27.180   1.338   7.364 -0.1533  0.1385  0.1109
    1W        W48976   8.935   1.210   0.285  0.0694  0.1996  0.1530
    1W        W48977   0.811  18.029   9.096 -0.0429 -0.3909  0.0758
    1W        W48978  13.502  12.139   8.812  0.0455  0.1017 -0.2687
    1W        W48979  27.540  27.590   3.204 -0.0365  0.2533 -0.1057
    1W        W48980   4.417  23.323   6.860  0.3632 -0.3358 -0.1623
    1W        W48981  27.564   8.253   6.816  0.1707  0.0680  0.4733
    1W        W48982   4.628  17.840   0.945 -0.5021  0.1601  0.1530
    1W        W48983   8.411   7.050   1.637 -0.1647  0.0599  0.2310
    1W        W48984  10.660  21.830   0.838 -0.1873 -0.0412 -0.1636
    1W        W48985  21.729   2.867   8.285 -0.0480  0.2240  0.0946
    1W        W48986  14.773  26.569   2.402 -0.1230 -0.0867 -0.0656
    1W        W48987  18.916  17.863   1.308 -0.2084  0.2330  0.0779
    1W        W48988  13.148   9.264   8.712  0.1194  0.0480  0.0679
    1W        W48989  10.643   2.363   3.044  0.0663 -0.0497  0.0443
    1W        W48990  20.364  15.688   1.267  0.2449 -0.2742  0.0607
    1W        W48991   6.762   8.463   1.048  0.1472  0.0779  0.0579
    1W        W48992  24.566  15.076   5.949  0.1138 -0.0285 -0.0397
    1W        W48993  27.590   1.676   6.969 -0.5439 -0.3885  0.0218
    1W        W48994  16.984   4.950   8.643 -0.0507  0.1118 -0.1226
    1W        W48995  14.098  17.183   7.928 -0.0702 -0.0878 -0.2772
    1W        W48996  22.032  22.276   0.441 -0.2469  0.1736  0.0053
    1W        W48997  24.837  13.280   7.581  0.1066 -0.1878  0.2690
    1W        W48998  11.530  28.569   7.869 -0.2677 -0.0622 -0.0044
    1W        W48999  23.212  27.874   2.194  0.1119  0.0588  0.2883
    1W        W49000   9.859  12.861   7.923 -0.2292  0.0652 -0.3464
    1W        W49001  19.308   0.482   0.853 -0.1303 -0.1254 -0.0859
    1W        W49002   9.160   2.274   8.126  0.1329 -0.3230 -0.0380
    1W        W49003   4.576  14.849   8.678 -0.2979 -0.0347 -0.0918
    1W        W49004  13.860   3.550   1.082 -0.0175  0.2618  0.4984
    1W        W49005  27.262  16.891   0.290 -0.0440  0.2855  0.1661
    1W        W49006  13.025   3.502   1.693 -0.0527  0.0327 -0.0288
    1W        W49007  26.211  26.634   7.388 -0.1389 -0.1961  0.2721
    1W        W49008   6.273   9.964   1.745 -0.0643  0.0673  0.2554
    1W        W49009  26.837  11.910   7.716  0.0156  0.2727  0.1269
    1W        W49010  22.771  13.957   6.472  0.1696  0.1998 -0.1316
    1W        W49011  11.301  11.869   8.343 -0.2353 -0.0569  0.0869
    1W        W49012  16.634  22.321   6.562  0.0519  0.0327 -0.0111
    1W        W49013  22.271  13.108   1.209  0.1999  0.1510  0.0804
    1W        W49014   0.178   2.807   0.415 -0.0254 -0.0063  0.2509
    1W        W49015   1.631   7.822   6.951  0.0562 -0.0653  0.1715
    1W        W49016  19.713  11.856   8.767  0.0343  0.2448 -0.1793
    1W        W49017  23.213  17.179   9.029 -0.2927  0.0751  0.0817
    1W        W49018  26.454  19.377   8.334  0.1478  0.2610 -0.2170
    1W        W49019  11.030  26.873   6.702  0.2291  0.0581 -0.1157
    1W        W49020   5.330  10.554   2.505  0.0903  0.1040  0.0321
    1W        W49021  30.059  27.879   1.389  0.2889  0.0793 -0.1380
    1W        W49022   3.564   9.209   8.126 -0.0106  0.2478 -0.1037
    1W        W49023   0.806  26.768   0.362 -0.0306  0.0090  0.2240
    1W        W49024  21.239   6.253   3.218 -0.1513 -0.0115 -0.0527
    1W        W49025  14.830  11.028   0.222 -0.0529  0.3835  0.0163
    1W        W49026  16.528  22.184   0.063 -0.1952 -0.1856  0.0998
    1W        W49027  24.004  19.703   9.368  0.1987 -0.2116  0.2672
    1W        W49028  13.363  22.340   9.042 -0.0900 -0.2791  0.0604
    1W        W49029  26.571   0.161   7.417  0.1849  0.1229  0.2193
    1W        W49030  26.341  15.706   0.794  0.0834 -0.1348  0.4043
    1W        W49031  28.488  28.932   1.882  0.0594  0.2002  0.2832
    1W        W49032  19.593  17.977   9.287  0.0216 -0.0195 -0.1802
    1W        W49033  27.146  22.905   0.823 -0.4097  0.0729  0.1621
    1W        W49034  22.405  19.194   1.431 -0.0935 -0.2527 -0.0517
    1W        W49035  20.021   9.620   2.532  0.1370  0.2859 -0.3243
    1W        W49036  26.092  20.484   7.573  0.3261  0.0050  0.0695
    1W        W49037   6.535  15.912   1.499  0.0572  0.0445 -0.0477
    1W        W49038  23.659  12.613   1.574  0.0712  0.1971  0.0330
    1W        W49039  23.036  26.116   0.955 -0.1364  0.2255  0.1613
    1W        W49040   2.907  17.859   5.865  0.1804 -0.2128  0.2182
    1W        W49041  29.518  21.070   1.818  0.2741 -0.0870 -0.0425
    1W        W49042   7.422   6.076   1.826 -0.0370 -0.0942 -0.0090
    1W        W49043  24.678  23.599   1.457  0.0851 -0.1066 -0.0946
    1W        W49044  24.085   5.380   7.999 -0.1732 -0.3036  0.0434
    1W        W49045   6.922  16.172   9.391 -0.0984 -0.1221 -0.1391
    1W        W49046  14.554  22.705   1.585 -0.1251  0.3434  0.3394
    1W        W49047  11.758  15.347   1.382  0.1165 -0.2602 -0.1840
    1W        W49048  30.027   7.276   6.976  0.0318 -0.0474 -0.0172
    1W        W49049   1.195   2.899   6.917 -0.0260  0.2134 -0.1808
    1W        W49050  24.549  25.259   0.828 -0.0306  0.1043 -0.0875
    1W        W49051  24.769  15.489   5.753 -0.1755 -0.1631  0.0908
    1W        W49052   5.806   6.470   9.029 -0.0083  0.2737  0.0940
    1W        W49053  27.097  23.000   1.998  0.2498 -0.1750  0.1217
    1W        W49054  26.720  11.163   6.081 -0.0749  0.0389 -0.0580
    1W        W49055  14.047  25.230   6.622  0.1195  0.1752 -0.1046
    1W        W49056   6.190   4.547   8.173  0.3507 -0.1361  0.0658
    1W        W49057   2.332   5.896   1.517  0.0346 -0.0581  0.1803
    1W        W49058  13.952   7.500   2.278  0.1295  0.1071 -0.2418
    1W        W49059  25.580   7.340   9.111 -0.1296  0.1023 -0.2240
    1W        W49060   3.576  20.544   9.309 -0.4367  0.4908  0.0451
    1W        W49061   8.067  21.982   7.834  0.1266  0.3005  0.4066
    1W        W49062  24.226  19.597   6.259  0.1555 -0.1183 -0.0817
    1W        W49063  13.014   9.742   7.919 -0.3203 -0.0385  0.0238
    1W        W49064  15.832  28.339   0.814  0.2668 -0.1823  0.1265
    1W        W49065  23.601   6.383   1.398  0.0406  0.0102 -0.3174
    1W        W49066   4.790   7.860   7.839  0.0562 -0.0043 -0.0307
    1W        W49067   1.087   0.768   2.555 -0.2802  0.4934 -0.1310
    1W        W49068  20.674  17.597   1.553  0.2527  0.0724 -0.2602
    1W        W49069  26.990   7.545   7.964  0.1678  0.1492 -0.2818
    1W        W49070  20.614  22.974   1.610  0.2364 -0.1157 -0.0906
    1W        W49071   7.433  25.613   0.369 -0.1998 -0.4174  0.1255
    1W        W49072  16.869  11.790   1.246 -0.3252  0.2089 -0.1265
    1W        W49073  23.549  23.723   2.535  0.1031 -0.1262 -0.3168
    1W        W49074  20.132   3.229   1.701 -0.3111 -0.3674  0.1153
    1W        W49075  11.252   1.677   3.146 -0.0952  0.5843  0.0347
    1W        W49076   1.469  13.760   0.559  0.1874  0.4733  0.2240
    1W        W49077   2.055   1.703   2.422 -0.0007  0.1154  0.0471
    1W        W49078   4.319   5.258   2.993  0.0973 -0.0669 -0.2654
    1W        W49079  23.641   2.227   8.498  0.1808  0.3687 -0.0341
    1W        W49080  26.975  18.342   1.061 -0.3290 -0.2188 -0.2294
    1W        W49081  18.318  27.445   6.363  0.3960  0.0795 -0.0445
    1W        W49082   5.850  25.623   6.283 -0.1161  0.3018 -0.2583
    1W        W49083  19.969   6.869   1.723 -0.0603 -0.0676  0.0319
    1W        W49084  27.990   5.401   1.076 -0.0940  0.0813 -0.0901
    1W        W49085  25.367   3.686   3.024 -0.0347  0.3545 -0.1676
    1W        W49086  16.227  27.212   3.096 -0.1826  0.0966  0.3644
    1W        W49087  26.554   6.730   7.938  0.1815 -0.0653 -0.1069
    1W        W49088  23.670  18.129   6.975  0.0633 -0.0998  0.0346
    1W        W49089  29.983  23.792   6.383  0.4411 -0.2683  0.1889
    1W        W49090   0.891  12.407   0.212 -0.1095  0.5075  0.0717
    1W        W49091  24.482  20.277   2.110  0.0503  0.3436 -0.0674
    1W        W49092   1.047   5.836   1.981 -0.0916 -0.0900 -0.1959
    1W        W49093   7.041   4.710   6.820 -0.0361  0.0735 -0.1677
    1W        W49094  19.760  28.975   8.037 -0.2080 -0.0005 -0.0931
    1W        W49095   7.044  29.581   7.436 -0.1773 -0.1013 -0.3652
    1W        W49096   9.948   1.186   8.577  0.1715  0.0312  0.1843
    1W        W49097  23.633   9.256   0.994 -0.1536 -0.1295 -0.0558
    1W        W49098  11.731  26.593   7.326  0.0499 -0.0172  0.0029
    1W        W49099  13.073   8.908   1.879  0.0459  0.0658  0.0057
    1W        W49100   8.265  12.867   1.998 -0.0882  0.1770  0.0830
    1W        W49101  19.910  28.160   1.856  0.0877  0.0239  0.1936
    1W        W49102   4.892  24.290   8.938 -0.0231 -0.2890 -0.0217
    1W        W49103  23.320  17.210   0.078 -0.0128 -0.2212 -0.3202
    1W        W49104  28.072  26.538   7.503 -0.3893  0.2691  0.0561
    1W        W49105  27.309   0.897   0.784  0.0529 -0.0344 -0.2275
    1W        W49106  27.112   7.516   0.968 -0.0448 -0.4569  0.2037
    1W        W49107  24.991   5.432   2.960  0.3046 -0.0120  0.0505
    1W        W49108  24.987   3.630   7.055  0.1692  0.1866 -0.1059
    1W        W49109  24.397   1.144   9.100  0.0063 -0.5112 -0.0940
    1W        W49110  24.573  19.737   1.510  0.3661 -0.1236  0.1021
    1W        W49111   7.191   4.365   8.141  0.0823  0.3459 -0.1356
    1W        W49112  19.871   4.369   8.336  0.1483  0.3434 -0.2462
    1W        W49113  25.936  28.227   0.506 -0.1967  0.1120 -0.1124
    1W        W49114  24.126   0.020   7.621  0.0589 -0.1072 -0.1349
    1W        W49115   2.660   0.753   6.944 -0.0239 -0.1168 -0.3619
    1W        W49116  19.625  29.970   7.841 -0.0999 -0.1930  0.0336
    1W        W49117  23.505  20.280   8.093 -0.2059  0.1354  0.2035
    1W        W49118   0.976  14.086   8.332 -0.2586 -0.0842  0.0385
    1W        W49119  20.434   0.655   7.395  0.2585 -0.2329 -0.0850
    1W        W49120  29.465   7.314   8.504 -0.0716 -0.1128  0.1233
    1W        W49121  16.539   0.852   8.993  0.0953  0.2611  0.3303
    1W        W49122  27.252   5.639   8.319  0.4920 -0.2907  0.2735
    1W        W49123  12.364   2.027   0.329  0.0021 -0.1308  0.0530
    1W        W49124  18.363  24.362   1.282  0.0736  0.1329  0.0131
    1W        W49125  10.090  11.695   8.747 -0.2582  0.1470 -0.0295
    1W        W49126   5.421  15.988   8.693 -0.0696 -0.2882  0.0319
    1W        W49127  21.624   8.520   2.554 -0.3228  0.1293  0.0030
    1W        W49128  24.288  17.826   1.619 -0.0139 -0.2687  0.1420
    1W        W49129   3.552  11.656   0.176  0.1280 -0.1404  0.3350
    1W        W49130   8.527  14.362   0.570 -0.0389 -0.1182 -0.1212
    1W        W49131   5.669   9.862   1.979 -0.1547  0.0852  0.0154
    1W        W49132  16.690  26.188   1.834  0.0504  0.1410  0.3311
    1W        W49133   9.562   0.591   1.428  0.1652  0.0316 -0.1299
    1W        W49134  18.866  21.322   2.851  0.2157  0.0669 -0.2725
    1W        W49135  26.852  14.181   8.333 -0.3169 -0.0249  0.2822
    1W        W49136   1.393  25.810   1.084 -0.0470  0.4088  0.2840
    1W        W49137  30.068  11.523   0.703  0.1253  0.1522  0.0107
    1W        W49138  17.589  19.268   0.153 -0.0554 -0.0936  0.0389
    1W        W49139  23.600  19.779   6.833 -0.2939 -0.2049  0.0381
    1W        W49140  23.062  17.309   0.532 -0.2045 -0.1695 -0.0448
    1W        W49141  14.128  14.913   0.670 -0.0857 -0.2062  0.2167
    1W        W49142  13.875  16.300   2.627  0.2028  0.0158 -0.1204
    1W        W49143  22.387   1.425   2.230  0.1900 -0.0557 -0.0642
    1W        W49144  21.311  28.206   1.085  0.0207 -0.2032  0.0582
    1W        W49145  24.711  27.358   0.073 -0.1326 -0.2276 -0.1478
    1W        W49146  21.717   6.700   1.066 -0.0575  0.0187 -0.0693
    1W        W49147  26.587   8.606   6.031  0.0033 -0.0730 -0.2188
    1W        W49148  14.706  23.108   6.902 -0.1872  0.1871  0.1329
    1W        W49149  23.664  15.207   7.878  0.1363  0.0714  0.2165
    1W        W49150  25.189  16.198   7.878 -0.0076 -0.0855  0.0827
    1W        W49151  29.147  22.950   7.784  0.4449  0.1502  0.1153
    1W        W49152  21.690   6.188   7.400  0.0009  0.0389 -0.1913
    1W        W49153  10.330   8.414   2.774  0.0611  0.0018  0.0881
    1W        W49154  24.436  14.728   0.703  0.1263  0.0134  0.0177
    1W        W49155   8.615  22.533   5.148 -0.1428 -0.0286 -0.3988
    1W        W49156  21.730  10.308   8.683  0.0375 -0.0877 -0.0193
    1W        W49157  11.884  17.925   0.885 -0.2737  0.1024  0.0960
    1W        W49158  22.628   9.231   0.913  0.1737  0.0584 -0.0869
    1W        W49159  13.844  18.086   7.446 -0.0018 -0.0434  0.1252
    1W        W49160   3.135  10.571   0.296  0.0577 -0.1251 -0.4177
    1W        W49161  11.724   1.987   3.344  0.3080 -0.1977 -0.1227
    1W        W49162   7.901  18.207   0.642 -0.2403 -0.2877 -0.2069
    1W        W49163   4.566  11.193   6.896 -0.2480  0.1475 -0.1873
    1W        W49164  14.208  14.325   0.047 -0.0241 -0.0403  0.1197
    1W        W49165  24.627   3.557   1.629  0.3570  0.0247 -0.2902
    1W        W49166  20.484  20.507   0.714 -0.2210  0.0471  0.0809
    1W        W49167  28.614  28.717   1.357  0.0844  0.0425 -0.4084
    1W        W49168  20.557  26.161   3.164 -0.0526  0.0984 -0.2839
    1W        W49169  17.384  19.342   7.051  0.1725 -0.1168 -0.2053
    1W        W49170   3.249   5.884   7.118 -0.1429 -0.2635  0.1497
    1W        W49171   9.387   4.685   0.504 -0.2213 -0.0377 -0.2011
    1W        W49172  24.505   7.353   7.271  0.2264  0.2567  0.1357
    1W        W49173  18.958  17.878   7.204  0.2098  0.3778 -0.2771
    1W        W49174  17.122  27.516   1.076  0.0733 -0.0917 -0.2438
    1W        W49175  24.389   3.454   8.044  0.0047 -0.0497 -0.0231
    1W        W49176  11.151   7.317   2.907  0.1696 -0.2177 -0.4682
    1W        W49177  21.551   3.856   8.841  0.0348  0.1408 -0.0528
    1W        W49178  16.456  15.195   0.789  0.0069 -0.1743  0.0186
    1W        W49179   3.475  14.935   8.644 -0.0982 -0.1575  0.1149
    1W        W49180  16.172  19.143   0.557  0.0761 -0.2455 -0.0563
    1W        W49181  25.149  23.793   1.823 -0.2467 -0.1098  0.0191
    1W        W49182   6.326  29.626   8.885  0.0119 -0.0996 -0.4116
    1W        W49183   6.423  24.445   1.500 -0.0636 -0.1356  0.5507
    1W        W49184  19.496  29.430   0.679 -0.2413  0.0285  0.1648
    1W        W49185  17.519  11.245   8.723  0.5751  0.1104  0.1290
    1W        W49186  14.760  15.528   8.328 -0.0050 -0.2544 -0.0521
    1W        W49187   7.134   1.126   2.036  0.2226 -0.0382  0.0643
    1W        W49188  26.109   4.292   8.814  0.2474 -0.0924 -0.0678
    1W        W49189  15.908  18.825   1.162 -0.0726  0.1750 -0.0202
    1W        W49190   3.521   6.625   8.141  0.0175  0.0923  0.1367
    1W        W49191  29.263  26.006   8.181  0.2347  0.0319 -0.3183
    1W        W49192   6.820  28.551   8.259 -0.0334  0.1231  0.2275
    1W        W49193   3.275  17.438   6.490  0.0952  0.4666 -0.3510
    1W        W49194  25.015  21.160   8.948  0.2538 -0.3557 -0.0453
    1W        W49195  12.579   0.749   8.650 -0.0389  0.1573  0.0604
    1W        W49196   7.116  19.143   6.766  0.0416 -0.3104  0.3129
    1W        W49197   1.994  21.376   8.609  0.3483  0.0683  0.2460
    1W        W49198  23.082   7.742   2.148 -0.0043  0.0216  0.2381
    1W        W49199   3.728  10.292   1.447 -0.3361  0.3103 -0.0976
    1W        W49200  23.183  25.421   7.353 -0.1549  0.0555 -0.1473
    1W        W49201  19.322  21.006   7.593  0.0175  0.0339 -0.1183
    1W        W49202  14.843   5.563   8.164  0.1244  0.2391  0.2572
    1W        W49203  27.444   4.434   2.123 -0.1909 -0.0098 -0.2349
    1W        W49204  23.005  21.007   8.362 -0.5212 -0.2178 -0.0653
    1W        W49205  26.097   7.952   9.136 -0.1275 -0.1002 -0.1395
    1W        W49206  14.737  22.709   0.230  0.2622  0.0274  0.2224
    1W        W49207   5.008   9.260   9.126  0.1278  0.2793  0.0238
    1W        W49208   1.504  22.889   6.707  0.0524 -0.3178  0.0170
    1W        W49209  20.363  29.238   2.219 -0.3380 -0.1255  0.0235
    1W        W49210   2.856  10.580   2.024 -0.3562 -0.0827  0.5411
    1W        W49211   3.529   1.552   3.404 -0.0162 -0.3095  0.1416
    1W        W49212   4.544  30.079   0.928  0.2756 -0.2067 -0.1579
    1W        W49213   4.371   8.329   7.639  0.2802 -0.2092 -0.3171
    1W        W49214  29.742  25.263   6.234  0.3504  0.0052  0.0678
    1W        W49215   6.488  27.938   7.647 -0.1215 -0.1237  0.2054
    1W        W49216  20.302   9.906   0.429  0.1319 -0.2240  0.1331
    1W        W49217   4.011  15.132   7.287  0.1725 -0.1308  0.2903
    1W        W49218  19.192   4.118   9.000 -0.1049  0.1930 -0.0334
    1W        W49219   5.974  14.001   1.041 -0.2513 -0.0221  0.2160
    1W        W49220  13.203  24.716   1.916  0.0615 -0.0935  0.0578
    1W        W49221  20.476  17.040   7.857  0.0093 -0.0584 -0.0454
    1W        W49222  26.856   0.917   0.508 -0.0131  0.0152 -0.0929
    1W        W49223  20.480  13.329   1.282  0.0241 -0.0561  0.0002
    1W        W49224  20.441   0.229   7.077  0.1240  0.2107  0.0773
    1W        W49225  24.839  21.727   8.435 -0.2902 -0.0430 -0.0984
    1W        W49226  29.752  18.420   1.141 -0.1765 -0.0459 -0.1438
    1W        W49227  12.116   8.031   8.630  0.1262  0.2022  0.0256
    1W        W49228  13.442   7.940   8.538 -0.0561  0.2544 -0.1484
    1W        W49229  28.128  26.587   8.013 -0.1955  0.2449  0.1045
    1W        W49230   0.937   7.733   0.738 -0.0428  0.1657  0.1636
    1W        W49231  26.042  12.716   5.971 -0.1962 -0.0620  0.3208
    1W        W49232  27.584  22.028   9.317 -0.3249 -0.0051 -0.0677
    1W        W49233  20.768   6.572   2.053  0.0689 -0.0389  0.2770
    1W        W49234   4.538   0.955   7.714 -0.2576  0.0536  0.4563
    1W        W49235  16.135  19.924   9.019  0.1113  0.1183 -0.0116
    1W        W49236   0.901  17.177   1.055  0.1207 -0.2704 -0.3190
    1W        W49237   9.913  18.732   8.983 -0.1701 -0.1061  0.1623
    1W        W49238  27.827  20.974   7.251  0.1707  0.0006 -0.0509
    1W        W49239  26.632   4.157   2.553  0.0382  0.1342  0.4723
    1W        W49240  23.220  26.197   7.589 -0.2817 -0.1045 -0.0176
    1W        W49241   4.138   7.055   9.314  0.0433 -0.0198 -0.2982
    1W        W49242   4.962  23.220   1.031 -0.1755 -0.0624  0.3522
    1W        W49243  12.112  20.004   2.112 -0.0558  0.0564  0.0713
    1W        W49244   1.946  28.599   0.687 -0.0659 -0.0941  0.0993
    1W        W49245  17.185  21.606   1.571  0.0328 -0.0722  0.0487
    1W        W49246  26.275  10.536   8.211 -0.2678  0.0575  0.1218
    1W        W49247   7.407   8.134   2.748 -0.0906 -0.1813 -0.0656
    1W        W49248  24.816  20.401   0.750  0.1887  0.3356 -0.1214
    1W        W49249  27.774  25.009   0.474  0.2609 -0.0457 -0.2413
    1W        W49250  20.216  27.584   8.309 -0.2936  0.2146  0.0703
    1W        W49251  13.015  24.326   2.188 -0.0336 -0.1267 -0.0001
    1W        W49252   6.008  17.508   7.048  0.0375 -0.0763 -0.0375
    1W        W49253  27.123  23.122   6.430 -0.0182  0.2485  0.1920
    1W        W49254  25.837   3.902   0.574  0.0509 -0.0101  0.1494
    1W        W49255   1.778  22.485   5.624  0.3747  0.0790 -0.1603
    1W        W49256  27.635  10.348   0.012 -0.0021 -0.2463  0.2049
    1W        W49257  21.192  11.329   8.956 -0.1131  0.0784  0.1963
    1W        W49258   2.999   6.060   8.383 -0.0148  0.0820 -0.1669
    1W        W49259  20.544  12.836   8.304 -0.0521  0.1402 -0.0504
    1W        W49260  25.734  13.337   6.713 -0.2329 -0.0072  0.0149
    1W        W49261   7.364  19.474   8.803 -0.0326 -0.1998 -0.2665
    1W        W49262  28.317   4.751   8.017  0.1359  0.2105 -0.1631
    1W        W49263  23.771  24.562   8.823  0.1768  0.0441 -0.2899
    1W        W49264  22.293  13.776   9.136  0.0732 -0.0669 -0.1476
    1W        W49265  29.951  27.595   7.928  0.1917  0.3327  0.3632
    1W        W49266   4.770  17.968   8.594 -0.2623  0.1540 -0.0667
    1W        W49267  13.431   9.566   8.445 -0.2444 -0.1059  0.0432
    1W        W49268   8.839   9.912   1.645  0.0738 -0.1577  0.2336
    1W        W49269  29.886  17.381   7.189  0.1198  0.1079 -0.0639
    1W        W49270  12.464   5.117   7.975 -0.2676  0.3507 -0.0718
    1W        W49271  14.491  14.983   7.290  0.0503 -0.0099  0.0264
    1W        W49272  13.889   4.940   8.020 -0.1594 -0.0859 -0.2766
    1W        W49273  26.317  25.437   7.304 -0.0082  0.1132  0.1496
    1W        W49274   4.489  19.022   0.264 -0.0116 -0.2302  0.0124
    1W        W49275  28.790   0.947   0.855 -0.1554  0.0041 -0.1963
    1W        W49276  18.789  18.751   1.420 -0.1372  0.0909 -0.1726
    1W        W49277  21.629   5.196   2.582  0.2514 -0.0924 -0.1886
    1W        W49278  16.614   7.946   9.035 -0.0422 -0.0690  0.0237
    1W        W49279   1.632  14.114   0.891 -0.1240 -0.3536  0.2109
    1W        W49280   7.122  27.911   1.522 -0.0164  0.0773  0.0406
    1W        W49281  30.002  13.856   1.788 -0.0585 -0.0424  0.2167
    1W        W49282   2.248  10.643   5.937 -0.1573  0.0677  0.1395
    1W        W49283  14.345  10.758   8.798  0.2920  0.2958  0.0142
    1W        W49284   0.207   7.447   8.403  0.1949  0.1159 -0.0339
    1W        W49285  14.681   7.701   0.933 -0.3546 -0.2531 -0.0164
    1W        W49286  22.314  18.229   8.474  0.0822 -0.3317  0.1930
    1W        W49287   5.255  22.277   6.323  0.3903 -0.2415  0.2345
    1W        W49288  21.289   2.771   6.981 -0.1748  0.0852 -0.0306
    1W        W49289  27.798   1.266   7.409 -0.2045  0.2634  0.0979
    1W        W49290  23.058   2.677   2.781 -0.3894  0.0825  0.3083
    1W        W49291  25.371  20.873   6.543  0.0326 -0.1391  0.1896
    1W        W49292   5.467  19.477   8.157 -0.1137 -0.0327  0.0531
    1W        W49293  24.947  22.970   7.765 -0.0333  0.1458 -0.3157
    1W        W49294   1.381   1.156   6.941  0.3317 -0.1153 -0.2019
    1W        W49295   7.297  26.054   1.190  0.1676 -0.2440 -0.1190
    1W        W49296  23.319   3.139   1.180 -0.1281  0.2978 -0.3171
    1W        W49297   3.361   6.032   0.631  0.3203  0.2663  0.0721
    1W        W49298   4.771  10.053   8.148  0.0907 -0.1408 -0.4822
    1W        W49299  24.171  29.716   3.190  0.0338 -0.1828  0.1150
    1W        W49300  21.365   0.686   1.925  0.0538  0.2897  0.1753
    1W        W49301   0.047   8.455   2.418 -0.0610 -0.1177  0.2479
    1W        W49302  20.072  12.799   7.987  0.1608  0.0348  0.1254
    1W        W49303   6.483   5.492   2.869  0.1538 -0.1207 -0.0765
    1W        W49304   6.811  14.585   1.249  0.0860 -0.2843 -0.0524
    1W        W49305   2.865  12.981   5.854 -0.0659  0.1216 -0.2576
    1W        W49306   9.118   0.420   0.021  0.1850  0.1998  0.2868
    1W        W49307  26.965  19.400   2.109 -0.1072 -0.0274 -0.0832
    1W        W49308  26.694  27.463   2.924  0.2742 -0.0194  0.0203
    1W        W49309   9.323   7.346   9.121  0.2137  0.0862 -0.0799
    1W        W49310   1.360  27.086   7.776 -0.1856  0.0086  0.0070
    1W        W49311   7.338  24.615   8.753 -0.1266 -0.1109 -0.0906
    1W        W49312   4.479  14.467   1.965  0.0973  0.0209  0.1582
    1W        W49313  11.690  14.549   8.418  0.0614 -0.1712  0.2680
    1W        W49314  14.792  14.277   0.254 -0.1424 -0.1842 -0.0821
    1W        W49315  14.185   5.491   3.106  0.4229  0.1811 -0.0106
    1W        W49316  24.018  12.423   2.302 -0.0039  0.0281 -0.1908
    1W        W49317   3.519  15.903   8.947 -0.1015  0.4602 -0.1740
    1W        W49318   7.199  11.115   2.503 -0.1352  0.2546  0.0744
    1W        W49319  22.585   3.515   7.907  0.0860  0.1898  0.2366
    1W        W49320   4.516  13.559   6.758 -0.2693  0.0654 -0.0998
    1W        W49321  28.884  13.979   7.817 -0.0948  0.0457  0.0697
    1W        W49322  14.664  27.164   8.689 -0.0582 -0.6438  0.0388
    1W        W49323   6.324   2.672   9.210  0.0481 -0.0653 -0.0854
    1W        W49324  15.759  15.933   8.183 -0.0152  0.1508  0.0233
    1W        W49325  29.617  16.120   1.306 -0.1034 -0.1312 -0.1185
    1W        W49326   9.299  28.968   8.196 -0.2417 -0.2610 -0.2315
    1W        W49327   9.989   9.800   3.381 -0.0637 -0.0713  0.0338
    1W        W49328   9.380  19.037   0.324 -0.0038 -0.2222 -0.1840
    1W        W49329   3.794  27.724   1.972 -0.0297 -0.1080 -0.2542
    1W        W49330  18.715  19.130   1.085  0.0239 -0.2459  0.0964
    1W        W49331  11.719   4.544   9.125  0.2595 -0.0923 -0.0561
    1W        W49332  27.519  28.628   1.761 -0.2585 -0.0450 -0.3217
    1W        W49333  28.355  27.647   0.542  0.2323  0.0014  0.1693
    1W        W49334   1.054   4.790   1.062  0.3693  0.1100 -0.0081
    1W        W49335  13.243  29.569   2.567  0.2971  0.1719 -0.3606
    1W        W49336  30.028   0.159   1.292  0.1133 -0.0709 -0.0679
    1W        W49337  16.545   1.758   7.659  0.2450  0.2553  0.1243
    1W        W49338  19.568  19.501   1.212  0.0081 -0.0244 -0.0632
    1W        W49339  12.719  13.268   0.580 -0.0788 -0.1766  0.2386
    1W        W49340  22.663  25.748   0.643  0.2140  0.3592 -0.0891
    1W        W49341   3.479  22.845   0.237  0.3009  0.1988 -0.1814
    1W        W49342  18.830  18.313   1.066 -0.2285  0.2168 -0.1741
    1W        W49343   5.630  20.964   7.736  0.3514  0.0316 -0.1183
    1W        W49344   5.682  16.852   8.278 -0.4671  0.3392  0.0520
    1W        W49345  22.867  11.656   0.613 -0.2010  0.1170 -0.1167
    1W        W49346   4.026   6.701   1.740  0.1474 -0.3371  0.0690
    1W        W49347   5.592  28.151   1.139  0.0041 -0.0934 -0.2711
    1W        W49348   9.046  20.496   0.372  0.0656  0.2825  0.2549
    1W        W49349  28.270  23.801   0.613 -0.1103 -0.0032  0.0167
    1W        W49350  18.736  23.789   2.541  0.0490  0.1937 -0.0197
    1W        W49351  27.023  19.617   8.118  0.5428 -0.1868 -0.0782
    1W        W49352  20.231  11.835   1.209 -0.1687 -0.3663 -0.0249
    1W        W49353  14.722  28.176   1.718  0.0494  0.1143  0.0612
    1W        W49354   0.143  14.906   8.803  0.3686  0.2844  0.2822
    1W        W49355   4.064   3.678   8.503 -0.2400 -0.1141 -0.1507
    1W        W49356  30.078   3.643   2.003  0.2041  0.0625  0.2567
    1W        W49357  13.550   0.785   9.102  0.2147 -0.1766  0.1992
    1W        W49358  13.162  24.054   0.707  0.1676 -0.1857  0.0716
    1W        W49359   5.320  12.573   8.356  0.0270  0.0712 -0.1885
    1W        W49360  11.309   9.819   2.242 -0.1321  0.0964  0.1916
    1W        W49361   7.626  27.006   0.393 -0.2636  0.0165 -0.1113
    1W        W49362  19.851  26.537   6.844 -0.3978 -0.0314 -0.0569
    1W        W49363   9.112  21.165   1.271  0.1348  0.2294 -0.1707
    1W        W49364   7.780  19.342   0.323  0.1463 -0.1855 -0.0941
    1W        W49365  12.584   1.599   0.159  0.0191 -0.0097 -0.1498
    1W        W49366   4.056  16.951   6.820  0.1289  0.1337  0.0917
    1W        W49367  10.199  24.795   6.979  0.0841 -0.0723 -0.0736
    1W        W49368  20.087  10.892   1.750 -0.1906  0.1508  0.0455
    1W        W49369  26.314  27.824   2.198  0.0313  0.1715 -0.1396
    1W        W49370  10.069  25.937   8.615 -0.0195 -0.0251  0.0411
    1W        W49371  21.818   6.297   6.739  0.1882 -0.1637 -0.0658
    1W        W49372  16.661  18.503   8.316  0.0239  0.0385  0.0364
    1W        W49373   4.011   3.604   0.174 -0.3131 -0.2431 -0.0396
    1W        W49374   7.129  23.657   1.063 -0.1261 -0.0929 -0.0501
    1W        W49375  27.215  21.850   1.301  0.1634 -0.0580 -0.0925
    1W        W49376  20.548   9.015   0.131 -0.2418 -0.1363  0.1323
    1W        W49377  15.198   7.437   0.047 -0.3013  0.0242 -0.3624
    1W        W49378  26.844   8.461   6.422 -0.2153 -0.0597 -0.4215
    1W        W49379   4.685   5.560   0.819  0.1601 -0.1526  0.0048
    1W        W49380  10.130  14.456   1.393 -0.2600  0.0245 -0.2070
    1W        W49381  13.506   6.647   0.393  0.0645 -0.0642  0.4095
    1W        W49382  25.006  11.924   9.386 -0.1994 -0.1519  0.1516
    1W        W49383  21.456  19.990   6.398 -0.0275  0.0308 -0.0675
    1W        W49384   7.889  26.207   7.769  0.3945 -0.1223  0.0544
    1W        W49385   2.215  21.512   0.786 -0.1251  0.0010  0.0019
    1W        W49386   0.734  27.830   2.009  0.1454 -0.0972  0.1561
    1W        W49387  16.708   5.890   1.394 -0.0033  0.0105  0.1109
    1W        W49388  27.362  22.343   8.261 -0.0842 -0.1201 -0.0913
    1W        W49389   3.901  26.683   9.264 -0.0386  0.0853 -0.0931
    1W        W49390   0.591  27.710   9.350  0.0403  0.1696 -0.1134
    1W        W49391  24.050  14.452   8.355 -0.0066 -0.1378  0.0544
    1W        W49392  10.354   8.174   1.499  0.0238  0.0929  0.0297
    1W        W49393  29.455  27.312   7.864 -0.0350 -0.1514  0.0404
    1W        W49394   0.919  26.842   8.801  0.0011  0.2223 -0.0472
    1W        W49395  27.695  20.268   9.328  0.0583 -0.2468 -0.3531
    1W        W49396  18.320   5.366   8.124  0.3454  0.0808 -0.1583
    1W        W49397   7.787  22.966   0.253  0.0348  0.1939  0.0087
    1W        W49398   4.302  15.852   7.960 -0.0145  0.0617 -0.0745
    1W        W49399   9.609  28.200   2.175  0.0787  0.0638 -0.0146
    1W        W49400  27.009  15.616   1.610  0.0146  0.0883 -0.1208
    1W        W49401  29.621  25.776   7.962  0.1858 -0.2118 -0.3221
    1W        W49402   7.450   1.749   2.938 -0.1459  0.0870  0.0462
    1W        W49403   7.101  30.150   2.802  0.2764 -0.1271 -0.2060
    1W        W49404  19.972   5.179   8.284 -0.4131  0.1279 -0.0867
    1W        W49405  12.134   0.202   0.338  0.0599 -0.1987  0.1734
    1W        W49406   4.991  11.799   0.734 -0.3480  0.0934 -0.0219
    1W        W49407  21.824  17.722   7.387 -0.0293 -0.4390  0.1958
    1W        W49408  26.686  11.494   0.300 -0.0416  0.0548  0.3060
    1W        W49409  18.992  17.265   1.601  0.2926  0.2293 -0.0497
    1W        W49410  25.567   8.135   0.344  0.1365  0.2357 -0.1424
    1W        W49411   7.476   7.729   7.562 -0.4168  0.0810 -0.3011
    1W        W49412   3.532  19.270   6.701  0.0550 -0.1344  0.0095
    1W        W49413   2.421  15.119   9.343 -0.0720  0.0561 -0.1193
    1W        W49414   2.767  12.406   9.370  0.2656  0.1981  0.1077
    1W        W49415  11.585   5.542   0.147 -0.0413 -0.1112  0.2847
    1W        W49416   9.337  26.334   6.803 -0.1452  0.0932  0.3608
    1W        W49417   1.767  14.460   7.028  0.2173 -0.0862  0.0616
    1W        W49418  18.192   6.826   0.584  0.0634  0.1146  0.0344
    1W        W49419  13.441  13.206   2.112 -0.2018 -0.1535 -0.0675
    1W        W49420  23.441  11.650   8.405  0.0491 -0.0976 -0.0878
    1W        W49421   5.314  26.469   8.025  0.3391  0.1933  0.0440
    1W        W49422  12.112   7.118   1.395 -0.2181  0.2303 -0.0052
    1W        W49423   6.475  27.712   9.277 -0.1663 -0.1820  0.0368
    1W        W49424  28.389  10.330   1.702  0.2638  0.0216  0.0094
    1W        W49425   0.726  14.416   5.918 -0.0093  0.0524 -0.3388
    1W        W49426  10.520   0.499   2.834 -0.2452 -0.1431 -0.0194
    1W        W49427  26.188  18.451   8.813 -0.0499  0.1085 -0.0973
    1W        W49428   6.197  18.877   2.147 -0.0666  0.0384 -0.0732
    1W        W49429   6.363  15.342   1.733  0.0525 -0.0153 -0.3138
    1W        W49430   3.710  19.704   0.971  0.0118  0.2109 -0.1123
    1W        W49431  18.938  24.324   8.177 -0.0331 -0.0961  0.2125
    1W        W49432  19.823  16.022   0.456 -0.0536  0.2540  0.1398
    1W        W49433  29.170   0.688   7.136 -0.3307  0.1324  0.1877
    1W        W49434   0.696  22.326   8.779  0.0573  0.2596  0.1769
    1W        W49435  17.622  16.893   6.642 -0.0465 -0.1348 -0.3592
    1W        W49436  17.407  16.994   7.089  0.1775 -0.4099 -0.0653
    1W        W49437  19.398  26.218   6.973 -0.2800 -0.1696  0.0536
    1W        W49438  12.145   0.359   8.474  0.0145  0.1032  0.3244
    1W        W49439   1.238  26.311   2.656 -0.3017  0.2392 -0.0337
    1W        W49440   1.891  21.396   1.197  0.1722  0.4554  0.1246
    1W        W49441   6.540   2.251   9.372 -0.2415 -0.0264 -0.1735
    1W        W49442   7.974  24.979   6.698 -0.1015 -0.0751 -0.0039
    1W        W49443  12.080   6.004   2.921  0.1638  0.4366 -0.1823
    1W        W49444  12.254  26.024   8.224 -0.0397  0.0921  0.1402
    1W        W49445   7.727  11.037   2.367 -0.2756 -0.2818 -0.3516
    1W        W49446  21.534  29.492   9.110 -0.0674 -0.2994  0.0584
    1W        W49447  23.838   0.295   7.337  0.2022 -0.1623  0.3363
    1W        W49448  27.749   0.124   7.807  0.3324  0.0394 -0.1072
    1W        W49449   3.871  29.811   7.641 -0.1633  0.3195  0.0362
    1W        W49450   5.279  24.682   1.276 -0.0839 -0.2380 -0.3237
    1W        W49451   3.214  25.441   7.509 -0.1440  0.3189  0.4032
    1W        W49452   1.880  28.056   2.592 -0.0849 -0.0311 -0.0949
    1W        W49453   7.811  17.434   7.215  0.3039 -0.2207  0.1729
    1W        W49454  18.430  17.001   9.200 -0.0737 -0.1006 -0.1593
    1W        W49455  11.829  21.152   8.588 -0.2510 -0.0295  0.1602
    1W        W49456   7.185   4.180   3.386 -0.0185  0.1115 -0.1981
    1W        W49457  25.796  14.365   8.504 -0.2357 -0.0038  0.0573
    1W        W49458   4.469   9.179   2.097 -0.0227 -0.0763  0.1568
    1W        W49459  28.398   6.962   1.193 -0.2288 -0.2850  0.2589
    1W        W49460  11.299   6.924   8.474  0.1969 -0.1182  0.1971
    1W        W49461  28.930   8.170   0.129  0.1712  0.0306  0.0069
    1W        W49462  21.523   0.952   8.135  0.0406  0.0286 -0.0785
    1W        W49463   2.507   6.562   0.265  0.1401  0.2750 -0.2546
    1W        W49464  17.109  14.492   2.237 -0.1058 -0.0870  0.1043
    1W        W49465  17.283  22.703   3.279 -0.2145  0.1116  0.0091
    1W        W49466  27.028  20.513   7.482  0.0323  0.2493 -0.1831
    1W        W49467  18.957  30.022   2.311 -0.1437  0.1413  0.0133
    1W        W49468   6.460  20.789   8.890 -0.0534 -0.3336  0.1235
    1W        W49469   5.506  28.702   3.183  0.1106  0.1006 -0.0315
    1W        W49470  17.392  28.204   2.031  0.0111  0.3221  0.3811
    1W        W49471  15.942  12.045   0.168  0.0931 -0.1756 -0.0731
    1W        W49472  19.589   2.267   7.691  0.1457 -0.0396  0.0110
    1W        W49473  11.004  10.910   8.013 -0.0527 -0.0461 -0.3505
    1W        W49474  14.491  12.577   9.059  0.0325 -0.2373  0.2832
    1W        W49475  23.771  18.333   8.298 -0.0329 -0.1474 -0.3112
    1W        W49476  28.421  20.659   6.251 -0.3559  0.0032 -0.0334
    1W        W49477  10.265   2.491   2.772  0.1817 -0.1226 -0.3344
    1W        W49478   9.104  24.418   9.302 -0.0311 -0.2543 -0.0761
    1W        W49479   9.404  11.432   8.183  0.1846 -0.0726  0.1612
    1W        W49480  18.455  29.268   2.008  0.1693  0.3910  0.2009
    1W        W49481   1.795  11.930   1.926 -0.2644 -0.0718  0.0076
    1W        W49482   3.224  10.224   6.910  0.1331 -0.0873  0.1722
    1W        W49483  19.230   5.267   0.454 -0.1161  0.0474  0.1505
    1W        W49484  24.829  10.699   5.207 -0.1059 -0.1949 -0.1033
    1W        W49485  28.735  24.987   7.289  0.0753 -0.3783  0.1060
    1W        W49486   4.609  19.068   7.999 -0.3651  0.0670  0.0066
    1W        W49487  28.843  15.229   9.390 -0.2904 -0.1246  0.0003
    1W        W49488  25.742   8.561   7.831  0.1352  0.1588  0.0423
    1W        W49489   7.508  15.408   2.925 -0.2680 -0.0593  0.1121
    1W        W49490   0.224  17.218   0.111 -0.1472 -0.2285  0.1157
    1W        W49491  20.445  25.847   0.176 -0.1441  0.0613 -0.1361
    1W        W49492   2.529  10.721   7.425  0.2097 -0.2318  0.1577
    1W        W49493  10.330  29.159   8.986  0.0556 -0.1082 -0.2342
    1W        W49494  13.811   1.155   0.533 -0.0491 -0.1894  0.3230
    1W        W49495  17.399  28.678   6.468 -0.0945 -0.2198  0.2056
    1W        W49496   4.240  17.496   0.975 -0.2136 -0.1208 -0.0794
    1W        W49497  28.835  10.304   6.256  0.1948 -0.1536 -0.1086
    1W        W49498  18.160  25.515   0.980  0.1247  0.2134 -0.1216
    1W        W49499  26.650  24.364   6.929 -0.2823 -0.1223 -0.0854
    1W        W49500  12.607   8.771   0.959 -0.3531  0.1372  0.0185
    1W        W49501   5.824  24.229   6.505 -0.1363  0.3615  0.2080
    1W        W49502  18.564  28.947   2.408  0.2257 -0.2773  0.0585
    1W        W49503   1.634  12.598   7.377  0.0193 -0.1088 -0.3303
    1W        W49504  27.782  27.637   2.230  0.0407  0.5184  0.0783
    1W        W49505  10.503  14.364   7.871  0.0022  0.0340 -0.0471
    1W        W49506  11.977  29.776   1.757  0.0414  0.1289 -0.0387
    1W        W49507   4.347  17.434   9.348  0.0666 -0.1918 -0.0213
    1W        W49508  24.978  11.896   0.931 -0.1764  0.0976 -0.0615
    1W        W49509  22.762  15.144   9.399  0.2586 -0.0280  0.3190
    1W        W49510  12.376   0.795   3.028 -0.0927  0.3645 -0.1695
    1W        W49511   7.756  19.838   6.550 -0.0339  0.1606 -0.0745
    1W        W49512  26.765  13.641   8.191  0.4219 -0.0694  0.2412
    1W        W49513  10.337   4.189   3.099  0.3466  0.1423  0.0828
    1W        W49514  25.058   4.337   1.176 -0.0319  0.0122  0.2649
    1W        W49515  27.398   4.351   1.571  0.1208  0.1005 -0.1300
    1W        W49516   2.138  20.680   4.946  0.1796 -0.2695 -0.0136
    1W        W49517  18.078  13.267   0.454  0.1423  0.0533  0.2487
    1W        W49518  11.612  16.261   8.811  0.2930 -0.1819 -0.1578
    1W        W49519  20.560  24.704   3.117 -0.2918  0.4903  0.2253
    1W        W49520  20.197  20.599   1.598  0.0508 -0.1491  0.1165
    1W        W49521   3.479   9.687   8.379  0.1364  0.1948  0.1297
    1W        W49522   9.671  13.403   1.760  0.0011  0.0397  0.0941
    1W        W49523  13.868  18.684   2.071  0.0605  0.0724 -0.2197
    1W        W49524   2.306  22.661   6.545 -0.1154 -0.1484 -0.1835
    1W        W49525   6.549   0.157   0.660 -0.1233 -0.0253 -0.2937
    1W        W49526  11.418  28.442   2.008  0.1279 -0.1250 -0.2428
    1W        W49527  28.277  23.119   1.389  0.0534  0.1354  0.0716
    1W        W49528  17.601  23.057   8.243 -0.2317 -0.1377  0.2258
    1W        W49529  19.169   6.309   0.713  0.3208  0.2580  0.0215
    1W        W49530  27.323  11.920   9.075  0.0403  0.0429 -0.1059
    1W        W49531   2.227   6.054   8.785 -0.0058  0.1155  0.0866
    1W        W49532   6.933  22.882   0.819  0.1048  0.0242 -0.1867
    1W        W49533  11.797  24.640   7.709 -0.1403  0.0449 -0.2130
    1W        W49534  10.562  27.837   9.135  0.0862 -0.3610  0.2408
    1W        W49535  28.050  26.820   1.052 -0.0507  0.3148 -0.1625
    1W        W49536   6.700   0.231   0.196  0.0583 -0.0694 -0.2641
    1W        W49537  28.302   1.155   1.462 -0.2847 -0.1655  0.2126
    1W        W49538  19.513   5.390   7.411 -0.0497 -0.1320  0.1351
    1W        W49539   0.691  25.976   9.223  0.4980  0.4779  0.1208
    1W        W49540   2.891  24.222   7.858  0.1286 -0.3078  0.1662
    1W        W49541  22.686  18.353   6.265 -0.4130 -0.1431 -0.1549
    1W        W49542  26.315   4.050   0.616  0.2006 -0.0805  0.0274
    1W        W49543  11.828  25.288   0.531  0.0865 -0.1484 -0.0594
    1W        W49544   9.360   2.093   0.959  0.2084  0.0369  0.0218
    1W        W49545   0.431  28.109   8.418  0.1904 -0.0256 -0.2827
    1W        W49546  17.303   2.806   2.879  0.0746 -0.0940 -0.1070
    1W        W49547  16.131  22.102   0.949 -0.1610  0.0372 -0.0847
    1W        W49548   6.584   1.164   0.551  0.0481  0.2909  0.5652
    1W        W49549  23.121   4.650   7.262  0.1611  0.0048  0.0077
    1W        W49550   9.789  18.442   8.593  0.0513  0.0410  0.2091
    1W        W49551   1.392   3.539   7.851 -0.1303 -0.1234 -0.2323
    1W        W49552   4.448  25.586   6.935 -0.2379 -0.0550 -0.0836
    1W        W49553  17.818   2.360   0.926  0.0139 -0.3957  0.1801
    1W        W49554  24.137   7.369   9.015 -0.0913 -0.0315  0.0993
    1W        W49555  16.043   0.861   0.054 -0.0302  0.0549  0.0433
    1W        W49556  15.977   9.324   2.529  0.1776 -0.3898 -0.1087
    1W        W49557   2.080   6.660   9.394 -0.0834 -0.1324  0.2402
    1W        W49558   6.524   5.939   1.043  0.1872 -0.0126  0.0288
    1W        W49559  14.412  22.239   1.684 -0.0886  0.0166  0.0856
    1W        W49560  12.812   5.619   9.112 -0.0332  0.2157 -0.0407
    1W        W49561  22.493  18.439   7.094  0.0827 -0.0449 -0.0474
    1W        W49562   0.348  10.726   0.402  0.1183 -0.1631  0.0740
    1W        W49563   8.188  15.142   2.604  0.1528 -0.0621  0.1412
    1W        W49564   0.547   8.779   8.190  0.2052  0.2151 -0.0707
    1W        W49565   9.189   6.102   7.567  0.1489  0.4659  0.3059
    1W        W49566  28.982   4.390   5.811  0.3177  0.2324  0.0981
    1W        W49567   6.024  22.289   9.317 -0.0152  0.2427  0.0893
    1W        W49568  11.172   1.317   2.770 -0.0639  0.3494 -0.1403
    1W        W49569   2.434  24.926   7.412 -0.0412 -0.0622  0.1093
    1W        W49570   1.002  30.113   7.907  0.0212 -0.2157  0.1666
    1W        W49571  26.143  19.985   1.852  0.3390  0.0300  0.1140
    1W        W49572  28.947  13.566   9.124 -0.0989  0.0667  0.0793
    1W        W49573  16.097  20.853   2.630  0.2241 -0.1235  0.1511
    1W        W49574  23.174   6.091   2.075  0.0748 -0.0701 -0.0580
    1W        W49575   9.676   6.004   7.769 -0.2618 -0.0773 -0.0682
    1W        W49576   1.552   5.025   0.989 -0.3518 -0.1024  0.3962
    1W        W49577   5.155  29.662   8.609  0.1161 -0.2828 -0.1183
    1W        W49578  25.078  19.089   8.469 -0.1175  0.0502 -0.0113
    1W        W49579   8.250   2.846   7.272 -0.0854  0.0065  0.0208
    1W        W49580  10.852  17.037   0.932 -0.1719 -0.1121  0.0214
    1W        W49581  27.777  15.623   7.672 -0.2165 -0.0398  0.0656
    1W        W49582  22.319  21.880   0.585 -0.1504 -0.0584  0.0486
    1W        W49583  24.679   9.201   2.571  0.0313  0.2221 -0.0143
    1W        W49584  28.920   3.556   9.012  0.0364  0.2072 -0.2381
    1W        W49585  19.891   2.888   2.666 -0.2533 -0.1096  0.2142
    1W        W49586   5.743  22.911   6.843  0.0992 -0.3684 -0.0699
    1W        W49587  26.576  12.068   0.290 -0.0140 -0.1093 -0.3285
    1W        W49588  29.628  26.526   8.639 -0.2633 -0.0112  0.2075
    1W        W49589  30.036  26.378   1.275  0.0374 -0.2030 -0.0321
    1W        W49590  28.116   7.041   1.640 -0.3680 -0.1352 -0.1672
    1W        W49591  29.061  20.921   8.148  0.1352  0.1241  0.1194
    1W        W49592   4.389  16.265   1.672  0.2961  0.0656 -0.2390
    1W        W49593   6.046  18.381   0.952 -0.2839  0.1168  0.1905
    1W        W49594   2.824  27.986   2.912 -0.3563  0.2235 -0.2260
    1W        W49595  14.689  27.270   6.672 -0.2180  0.0873 -0.3403
    1W        W49596   1.847   9.016   0.194  0.0295 -0.2774  0.1180
    1W        W49597   9.666  26.925   0.061 -0.2392 -0.0209 -0.2782
    1W        W49598  27.386  12.733   1.172 -0.1195  0.0597 -0.0421
    1W        W49599  17.668   2.366   2.152  0.0673 -0.2303 -0.0507
    1W        W49600  15.034  28.764   2.249 -0.1462  0.2483  0.3765
    1W        W49601   6.813  28.071   8.041 -0.1030 -0.0608  0.1513
    1W        W49602   8.328   2.021   1.169  0.4516 -0.0677 -0.1129
    1W        W49603   7.482  25.019   6.719 -0.2086 -0.0557  0.1450
    1W        W49604  24.401  17.170   7.361 -0.1776 -0.0301  0.0914
    1W        W49605  21.469  26.043   2.219 -0.1009  0.0855  0.2469
    1W        W49606  14.940  26.835   6.591  0.3035 -0.3577  0.2676
    1W        W49607  21.531  26.777   7.846 -0.1985  0.1133 -0.0394
    1W        W49608  21.629   0.801   1.520 -0.1701  0.0409  0.2481
    1W        W49609  11.012  18.597   2.144 -0.1797  0.0251 -0.1020
    1W        W49610  16.427  12.141   0.230  0.1378 -0.0562 -0.0475
    1W        W49611   3.614  27.425   1.041 -0.1411  0.0479  0.3082
    1W        W49612   6.937   2.463   1.514  0.1088  0.0411 -0.2793
    1W        W49613  20.213  25.582   7.717 -0.0370 -0.0323 -0.0347
    1W        W49614   3.473  18.575   9.251 -0.1563 -0.3722 -0.1449
    1W        W49615  28.768   8.605   1.956 -0.0165  0.0398  0.3298
    1W        W49616   8.729  14.912   0.131  0.1125 -0.2789  0.1350
    1W        W49617  27.384  28.521   8.663  0.0828 -0.0051 -0.2969
    1W        W49618   0.455  19.392   8.260 -0.1284  0.0423  0.1193
    1W        W49619   2.379  15.542   0.934 -0.1257 -0.2050 -0.2791
    1W        W49620   3.027  24.622   0.323  0.2179  0.1409  0.2581
    1W        W49621   9.735   5.624   1.317  0.1775  0.1769  0.0064
    1W        W49622   5.292   6.364   8.588  0.2367 -0.2261  0.0596
    1W        W49623  30.060  18.531   0.179  0.1778  0.1236  0.1609
    1W        W49624  26.546  24.501   2.234  0.0570  0.1247 -0.3546
    1W        W49625  26.337   5.899   7.541 -0.0519  0.0869  0.1769
    1W        W49626  27.947   0.951   8.385 -0.3816  0.4131 -0.0638
    1W        W49627  13.258   2.234   1.879  0.0385 -0.4305 -0.4506
    1W        W49628   4.127  20.501   5.652 -0.0784 -0.1710 -0.0579
    1W        W49629   0.625  12.220   1.208  0.0270  0.0841 -0.1078
    1W        W49630  13.870  13.324   1.750 -0.0525 -0.2845  0.3499
    1W        W49631   0.316   0.351   2.652  0.1635 -0.1554  0.3774
    1W        W49632  23.216  11.463   9.361  0.1228  0.0862  0.0267
    1W        W49633  24.896   3.876   8.487 -0.3172  0.3861  0.0216
    1W        W49634   7.194   4.728   0.480 -0.2291  0.1162  0.1591
    1W        W49635   0.151  17.743   0.063 -0.0559 -0.1533 -0.0860
    1W        W49636   7.311  21.122   0.205 -0.1066 -0.3193  0.0611
    1W        W49637  28.356  14.774   8.262  0.1571  0.1051 -0.2701
    1W        W49638   2.661  25.170   6.997  0.1700  0.0229 -0.2146
    1W        W49639   8.247  29.897   2.117 -0.0186  0.2198 -0.1841
    1W        W49640  29.532  14.803   1.301 -0.0623  0.1320  0.1299
    1W        W49641  19.954   1.956   7.888 -0.0814 -0.2248 -0.2186
    1W        W49642  27.519  15.497   0.868 -0.1020 -0.3110  0.1662
    1W        W49643  17.024  20.305   2.607  0.2725  0.0464  0.0960
    1W        W49644   5.186   3.157   3.173 -0.1833 -0.1309 -0.1465
    1W        W49645  11.726   0.210   8.225 -0.0622  0.1856  0.3157
    1W        W49646  27.522  30.021   7.414  0.1100  0.0614 -0.0223
    1W        W49647  14.677  10.933   1.059 -0.1160  0.0937  0.1469
    1W        W49648   4.746  24.238   6.917 -0.1577  0.0198  0.2231
    1W        W49649   8.071   1.812   9.136 -0.2091 -0.2797  0.2558
    1W        W49650   8.152   8.154   0.005 -0.0352 -0.1297  0.0972
    1W        W49651   7.587  17.067   7.797 -0.0834 -0.0912 -0.3407
    1W        W49652  22.972  17.513   7.370  0.4461  0.0868 -0.0296
    1W        W49653  26.067   3.353   8.759  0.3377 -0.0467 -0.2488
    1W        W49654   0.679   6.474   7.307  0.0330 -0.1970  0.0257
    1W        W49655  10.254   7.268   8.838  0.2303 -0.1367 -0.1217
    1W        W49656   1.082   8.782   8.873 -0.0023  0.1034 -0.1946
    1W        W49657  19.858   4.481   9.198  0.0661 -0.0562  0.3936
    1W        W49658  27.090   0.308   2.325 -0.0981  0.0603  0.2030
    1W        W49659  24.932  26.823   8.038 -0.1014 -0.2726  0.1213
    1W        W49660  23.460  20.744   7.199 -0.1385 -0.3582  0.0737
    1W        W49661  15.860   4.921   1.309 -0.1155 -0.4116  0.0151
    1W        W49662  25.112  14.968   9.399 -0.1009 -0.1504  0.2339
    1W        W49663  21.358   5.545   0.987  0.3789 -0.0649  0.2089
    1W        W49664  19.036  22.304   2.118 -0.0040 -0.0174  0.1746
    1W        W49665  24.473   6.215   8.273  0.1489  0.2034 -0.0897
    1W        W49666   6.490  17.954   8.222  0.2075 -0.0461  0.0039
    1W        W49667   3.803  22.475   0.506 -0.0559  0.1182 -0.1011
    1W        W49668  19.413  29.271   7.712 -0.0137  0.0185  0.1161
    1W        W49669  22.733  27.758   2.960  0.1136 -0.1443  0.1301
    1W        W49670   2.050  29.206   8.254  0.1854  0.1675  0.2115
    1W        W49671  13.706   9.406   7.526  0.2888 -0.0725  0.0876
    1W        W49672  24.823  16.588   6.231  0.1511 -0.0484  0.1742
    1W        W49673   2.326  12.914   8.783  0.2958 -0.0417 -0.0560
    1W        W49674   5.157  25.131   0.975  0.0448 -0.1332  0.2608
    1W        W49675  16.553  22.683   1.365 -0.1663  0.2156 -0.1268
    1W        W49676  17.018   7.811   2.680 -0.4208 -0.0214 -0.1079
    1W        W49677   4.116  20.938   1.240  0.2709  0.1290  0.2070
    1W        W49678   3.417  13.664   0.229  0.0488 -0.2800 -0.2573
    1W        W49679  11.360  25.500   1.465  0.0328 -0.2887 -0.0577
    1W        W49680  11.533  17.431   8.754 -0.2012  0.1882 -0.0288
    1W        W49681  18.783   7.329   1.562 -0.0457  0.1834 -0.0396
    1W        W49682   3.643  14.274   0.130  0.0787 -0.1559 -0.3206
    1W        W49683   8.351  13.319   2.286 -0.2337  0.0853  0.2209
    1W        W49684  20.670   6.360   8.275  0.1776  0.0805 -0.0719
    1W        W49685   0.296  13.325   1.681 -0.0610  0.3517  0.2483
    1W        W49686   5.734  12.882   7.415 -0.0499 -0.0697 -0.2158
    1W        W49687   6.793  19.252   7.635  0.1326  0.2031  0.0145
    1W        W49688  10.967  28.123   7.412 -0.0381  0.2110  0.1338
    1W        W49689  19.680  10.543   0.733  0.0365  0.1936 -0.0314
    1W        W49690  11.190   5.343   8.514  0.1093 -0.0521 -0.0089
    1W        W49691  24.360  19.258   2.377 -0.0598 -0.0905  0.2689
    1W        W49692   0.397  18.931   5.916 -0.0238 -0.2565 -0.1725
    1W        W49693   8.547  27.589   8.182 -0.1165  0.0663 -0.3118
    1W        W49694  13.978  24.756   8.068 -0.1662  0.0690 -0.1340
    1W        W49695   4.485   8.067   8.510 -0.1980 -0.1039 -0.0861
    1W        W49696  11.935  27.432   1.888  0.1370  0.1265 -0.0498
    1W        W49697   2.668   9.141   1.266 -0.0063  0.1315  0.0888
    1W        W49698  18.810   4.431   9.008 -0.1451  0.0102 -0.2087
    1W        W49699   9.330  25.747   6.909  0.0138  0.2708 -0.0966
    1W        W49700   2.737  20.359   6.922 -0.1090  0.2993  0.0518
    1W        W49701   5.721  21.176   6.716 -0.3345  0.1495  0.0406
    1W        W49702  18.092   9.143   0.069 -0.4805 -0.1994  0.0883
    1W        W49703  28.912  10.556   2.227  0.1967 -0.2115 -0.2290
    1W        W49704   7.772   5.666   0.548 -0.2058 -0.2798 -0.0083
    1W        W49705   6.998   5.377   9.142 -0.1464 -0.2194  0.0794
    1W        W49706  28.456  24.649   8.842  0.4735  0.0727  0.0350
    1W        W49707  12.842  13.162   8.398 -0.0012  0.0430  0.1241
    1W        W49708  14.873  16.102   8.224 -0.0336 -0.1418  0.0233
    1W        W49709  10.400  21.517   6.854 -0.2483 -0.2111  0.0960
    1W        W49710  17.244  21.778   2.387  0.1112  0.1058 -0.1638
    1W        W49711  22.105  21.202   6.572  0.0925  0.0563 -0.3380
    1W        W49712   8.512  16.088   6.617 -0.2759  0.0871 -0.0167
    1W        W49713  28.476  20.339   8.693  0.2898 -0.2134 -0.1097
    1W        W49714  14.198  27.787   8.766 -0.1238  0.0602 -0.0109
    1W        W49715  19.391  16.241   1.236 -0.1312  0.0996 -0.1293
    1W        W49716  30.102  21.114   0.085 -0.1588 -0.0000 -0.2824
    1W        W49717   9.295  22.285   7.625 -0.2635  0.1245  0.0819
    1W        W49718  13.603  28.920   2.010 -0.0264 -0.2633  0.0258
    1W        W49719  22.644   4.086   1.669  0.2807  0.3934  0.1037
    1W        W49720   5.851  15.284   7.181 -0.0047  0.0127 -0.1016
    1W        W49721  20.615  27.692   9.217  0.2837 -0.1307  0.0066
    1W        W49722  12.455   7.800   3.323 -0.0601  0.1071 -0.4060
    1W        W49723   0.813  12.710   9.208  0.1376  0.0211 -0.1071
    1W        W49724   1.283   5.050   1.446  0.3445 -0.1148 -0.0228
    1W        W49725   6.080   0.287   0.820  0.1678 -0.3826  0.1998
    1W        W49726  19.327  28.756   7.867  0.3591 -0.0459 -0.2486
    1W        W49727   4.027   6.088   9.030  0.0005 -0.0343 -0.0826
    1W        W49728  24.194  24.588   9.065  0.0226  0.2660  0.2692
    1W        W49729  11.670  12.683   8.945 -0.1390 -0.2414 -0.1381
    1W        W49730   9.811  21.795   0.833  0.2325 -0.0081 -0.0407
    1W        W49731  12.457   4.334   3.714 -0.0851  0.1711  0.0451
    1W        W49732   0.424   4.876   6.765  0.4878 -0.0637 -0.2484
    1W        W49733  15.033  26.256   0.307  0.0289  0.2574 -0.0807
    1W        W49734  11.390  23.174   7.611 -0.2206 -0.0206 -0.0310
    1W        W49735  17.023  26.237   8.367  0.1009  0.2053 -0.1485
    1W        W49736   6.816  20.978   0.453  0.1769  0.2023 -0.1658
    1W        W49737   2.280  15.560   0.016  0.0735  0.0148 -0.1316
    1W        W49738  24.611   9.607   8.841 -0.0823  0.0302  0.2040
    1W        W49739  20.789  26.582   2.947 -0.4154 -0.1353 -0.1687
    1W        W49740  20.693  12.688   0.872  0.0669  0.0584  0.0635
    1W        W49741  21.896  14.032   1.831 -0.0150  0.0245 -0.3394
    1W        W49742   6.825  12.885   7.866  0.2431  0.0520 -0.0669
    1W        W49743  29.886   5.590   8.404  0.0008 -0.3867 -0.0595
    1W        W49744  17.519  24.217   1.498 -0.0931  0.2717 -0.2367
    1W        W49745   5.284  26.642   1.380 -0.2722  0.4405 -0.0745
    1W        W49746  15.670   4.171   3.477 -0.0755  0.0307 -0.2846
    1W        W49747  14.230  17.952   0.920  0.1238  0.1009  0.3343
    1W        W49748  11.513  15.572   2.158 -0.0498  0.0376  0.0083
    1W        W49749  18.052  23.265   1.767 -0.0244 -0.1006 -0.2096
    1W        W49750  10.604  27.059   8.735  0.0856  0.1444 -0.0796
    1W        W49751  21.227  15.985   1.199  0.0637  0.3158  0.0933
    1W        W49752   4.016  11.348   1.511  0.1036  0.0357 -0.0423
    1W        W49753  17.298   5.372   8.826  0.0612 -0.0268  0.4347
    1W        W49754   7.559  10.043   8.847  0.1415 -0.3503  0.2638
    1W        W49755  12.280  28.678   7.129 -0.1535  0.2177  0.0843
    1W        W49756   9.818   9.750   2.851  0.0688 -0.1753 -0.1287
    1W        W49757  17.029  29.485   1.117 -0.3031  0.0680 -0.1663
    1W        W49758  26.649   0.751   0.096  0.0917 -0.0860  0.0485
    1W        W49759  13.982   1.793   1.743  0.0198 -0.0002  0.0434
    1W        W49760   8.116   8.257   4.160 -0.2634 -0.0412  0.0774
    1W        W49761   1.968   8.109   0.713 -0.0011 -0.0465 -0.0048
    1W        W49762   2.678   2.465   1.141 -0.3538 -0.1975  0.0476
    1W        W49763  30.040  26.789   1.716 -0.0347 -0.4527 -0.3826
    1W        W49764  23.375  13.782   0.712  0.0584 -0.1972 -0.1150
    1W        W49765  26.895  24.943   6.707  0.1410 -0.0976  0.2074
    1W        W49766  28.960  12.937   7.565  0.3646 -0.1985 -0.0330
    1W        W49767   2.647  29.023   7.524  0.2317 -0.2210 -0.0671
    1W        W49768   7.635   2.634   8.263 -0.2088  0.0080  0.1979
    1W        W49769  17.208  20.652   0.934  0.2189  0.2019  0.0050
    1W        W49770  16.675  23.620   7.032  0.0139 -0.2664  0.2223
    1W        W49771  24.218  11.035   0.597 -0.1854 -0.1083 -0.1748
    1W        W49772  13.820  23.583   2.825 -0.0114 -0.1667 -0.4293
    1W        W49773  21.725  11.177   1.842 -0.2212 -0.0968  0.0494
    1W        W49774   8.183  24.468   1.382  0.3907  0.1715  0.4155
    1W        W49775   0.384  29.533   8.714 -0.1982 -0.1486 -0.1095
    1W        W49776  15.936  20.489   0.713  0.0202 -0.0025 -0.0877
    1W        W49777  17.732  12.864   9.188  0.0354  0.1007  0.2120
    1W        W49778   1.896   8.270   6.849 -0.0416 -0.0284 -0.2418
    1W        W49779  10.965  26.928   0.889 -0.1183  0.0691  0.0834
    1W        W49780   0.276  28.502   8.702 -0.1793 -0.2097 -0.0745
    1W        W49781  18.260   8.546   7.713 -0.2387  0.3471 -0.2523
    1W        W49782  25.030   2.747   7.625  0.0685 -0.0596 -0.0498
    1W        W49783  26.565   2.026   0.958  0.0456  0.0919 -0.4416
    1W        W49784  12.504  14.563   8.132 -0.1542  0.2806 -0.1907
    1W        W49785  29.243  14.815   9.322  0.3315 -0.2423 -0.0620
    1W        W49786  14.496  18.177   7.749 -0.0920  0.0336  0.0332
    1W        W49787   9.805   7.041   1.530  0.2314  0.1819 -0.1908
    1W        W49788  12.193  28.592   2.307 -0.1542  0.1113 -0.0755
    1W        W49789  26.227  15.552   8.237  0.1200  0.1595  0.1493
    1W        W49790   0.581  22.511   5.146 -0.2653 -0.0420  0.2739
    1W        W49791  21.039  21.637   0.325  0.2135 -0.0466 -0.1272
    1W        W49792  18.504  16.365   8.643  0.1641  0.0830  0.1754
    1W        W49793  29.645  17.131   5.983 -0.0412  0.2783 -0.1166
    1W        W49794  22.520  26.932   2.255  0.2173 -0.0888  0.0296
    1W        W49795  26.728  20.087   0.071 -0.0841  0.1944  0.1003
    1W        W49796  27.571  22.846   8.000 -0.4262  0.0447 -0.0992
    1W        W49797   9.084   6.441   8.779  0.0615 -0.0919 -0.0947
    1W        W49798  17.205   2.452   9.213  0.0190  0.0648 -0.0226
    1W        W49799   8.035  10.554   1.582  0.1112 -0.4545  0.1722
    1W        W49800   2.033  14.610   0.690 -0.1525 -0.1411 -0.2814
    1W        W49801   3.068   9.073   9.053  0.0333  0.2478 -0.2279
    1W        W49802   3.768   0.839   0.521  0.1477 -0.0807 -0.1188
    1W        W49803  10.222  26.453   7.614 -0.1924 -0.1215 -0.0439
    1W        W49804   1.057  28.779   0.521  0.0361  0.0453 -0.1853
    1W        W49805   7.010   0.832   0.198  0.1747  0.1898 -0.1523
    1W        W49806   5.395  13.426   8.859  0.0723  0.1416  0.0984
    1W        W49807  13.760  15.334   2.005 -0.1864  0.1741 -0.2181
    1W        W49808   3.948  17.265   0.258  0.1026 -0.2618  0.0015
    1W        W49809  24.372  27.914   2.497 -0.0697  0.0268  0.3896
    1W        W49810  13.145  29.027   2.297  0.4108  0.1306 -0.1696
    1W        W49811   7.838   8.309   7.750 -0.1157 -0.0730  0.1130
    1W        W49812  28.810  27.993   1.053  0.0816 -0.1609 -0.5081
    1W        W49813   2.322  27.391   1.302 -0.1151 -0.0105 -0.0553
    1W        W49814  21.951   7.905   9.273 -0.0461  0.0710 -0.0471
    1W        W49815  17.820   3.155   0.527 -0.1726 -0.0944 -0.0438
    1W        W49816  29.765   2.049   7.586  0.1195 -0.1799 -0.0150
    1W        W49817  23.971  11.552   8.215 -0.0193  0.0091  0.4371
    1W        W49818  15.838  19.566   0.475  0.0802 -0.2264 -0.0315
    1W        W49819   0.342  10.293   7.862  0.2142  0.0194  0.1226
    1W        W49820   1.447  13.346   9.224 -0.1092 -0.0317  0.0316
    1W        W49821  18.292  12.834   9.021  0.0854 -0.3538  0.2598
    1W        W49822   8.593  24.266   1.552  0.3496  0.0545 -0.3831
    1W        W49823  14.271  23.063   1.271 -0.2192 -0.0796  0.2130
    1W        W49824   5.855  19.200   0.583  0.2662  0.0072  0.1572
    1W        W49825  26.129   5.079   2.453  0.0442 -0.0305 -0.0402
    1W        W49826  10.740  23.433   6.840 -0.3947  0.1651 -0.0352
    1W        W49827  29.513   2.539   8.745  0.3161  0.0001 -0.3194
    1W        W49828  23.797   2.593   8.814 -0.0431 -0.3088  0.2206
    1W        W49829  22.330  23.512   1.897 -0.0123  0.0742  0.3337
    1W        W49830  23.601  11.057   1.786  0.0902  0.0506  0.2671
    1W        W49831  13.595  14.504   1.384 -0.0552 -0.1490  0.0347
    1W        W49832   1.777  26.551   6.480 -0.0119 -0.1729 -0.0887
    1W        W49833  11.841   6.718   7.379  0.0087 -0.1266 -0.0548
    1W        W49834   7.114  28.952   8.335 -0.0309  0.1518  0.0487
    1W        W49835   1.313  25.457   8.754 -0.0951 -0.0882  0.3002
    1W        W49836   7.155  21.111   9.145 -0.1058 -0.0320 -0.1002
    1W        W49837  28.644   7.590   7.821  0.3235 -0.2088  0.0603
    1W        W49838   6.870  26.016   7.165  0.3283 -0.1072  0.0952
    1W        W49839  22.785   6.623   8.738 -0.1561 -0.1210 -0.2501
    1W        W49840  21.055  19.896   8.751  0.1381 -0.1034  0.3246
    1W        W49841  13.009  21.954   7.743 -0.1888  0.0754  0.2091
    1W        W49842  13.872   3.779   7.700 -0.1515 -0.0377  0.1776
    1W        W49843  29.859  25.681   2.101  0.1119  0.1318 -0.4669
    1W        W49844   3.124  19.970   4.626 -0.1952 -0.0366  0.0980
    1W        W49845  10.567  29.094   1.422 -0.0859  0.0953  0.1197
    1W        W49846  14.921  28.236   7.831 -0.3473 -0.0763  0.2430
    1W        W49847  26.013   7.946   8.493  0.3390  0.3313  0.4936
    1W        W49848  26.165   2.129   8.357  0.1183  0.2335  0.1261
    1W        W49849   7.666  18.017   8.592  0.0342 -0.5958  0.1167
    1W        W49850   9.829  26.386   8.504 -0.1557  0.1170 -0.1009
    1W        W49851   5.398   7.763   0.015 -0.0364 -0.2612  0.3859
    1W        W49852  25.045   6.861   7.530  0.1377 -0.1964 -0.1481
    1W        W49853  26.573  21.020   1.956 -0.1875 -0.1825 -0.1013
    1W        W49854  18.845  10.164   8.318 -0.0047 -0.2605 -0.2462
    1W        W49855  27.387  11.693   2.382  0.0418 -0.2505  0.1474
    1W        W49856  24.304   4.773   9.037 -0.3073 -0.1736 -0.3051
    1W        W49857  17.450  17.907   1.194  0.1014  0.0900 -0.1435
    1W        W49858  18.158  14.883   9.047 -0.1532  0.1087 -0.0256
    1W        W49859  18.560  29.778   2.096 -0.0686  0.1117 -0.1835
    1W        W49860  16.488  18.227   0.339 -0.1726  0.1548 -0.0221
    1W        W49861   3.077  25.077   9.232  0.0186  0.4246  0.0448
    1W        W49862  17.415  28.290   1.084 -0.2917  0.0206 -0.1753
    1W        W49863  12.573  25.031   7.859  0.1341  0.0995  0.0845
    1W        W49864   4.391  14.966   0.806 -0.0184  0.0443 -0.2409
    1W        W49865  27.356  29.943   8.721 -0.1905  0.0394  0.0478
    1W        W49866  11.416  10.008   8.225  0.1149 -0.1824  0.0268
    1W        W49867  10.807  17.450   1.793 -0.0334  0.0876 -0.1742
    1W        W49868  29.876  13.682   0.914  0.1604  0.2939 -0.0965
    1W        W49869   2.347   8.499   6.896  0.1933  0.1252 -0.1347
    1W        W49870  15.609   3.086   2.082  0.1339  0.4545  0.3225
    1W        W49871  16.694   4.694   2.978  0.2268 -0.2019  0.1646
    1W        W49872  20.725  17.100   1.375  0.2433 -0.0213 -0.1752
    1W        W49873   3.727  26.613   0.313 -0.1916  0.3371 -0.4092
    1W        W49874  24.933  17.303   8.117  0.1313 -0.1781 -0.0113
    1W        W49875  18.529   7.820   1.293  0.0576  0.2437 -0.1613
    1W        W49876  20.765   0.564   2.803 -0.2473 -0.0624 -0.1549
    1W        W49877   4.214   4.025   9.334  0.2301  0.4011  0.3675
    1W        W49878   1.527  24.751   7.736 -0.0478  0.1517  0.0714
    1W        W49879  29.899  10.140   9.404 -0.1673 -0.4135 -0.0858
    1W        W49880  26.654  27.879   0.978 -0.4414 -0.0474 -0.1787
    1W        W49881  16.527   6.664   7.409  0.1311 -0.1965 -0.0679
    1W        W49882   3.576  10.032   2.408  0.1945 -0.1417  0.1694
    1W        W49883  23.098  17.276   6.987  0.0651 -0.0191  0.1004
    1W        W49884  13.301  21.014   1.341  0.3094 -0.0186  0.1601
    1W        W49885  22.598  16.554   6.646 -0.2380  0.1271  0.2831
    1W        W49886   6.955   1.655   2.815 -0.0259  0.0982  0.2650
    1W        W49887  24.039  18.679   0.693  0.1668 -0.0868 -0.0543
    1W        W49888  18.370   5.293   2.514 -0.1820  0.1266 -0.0081
    1W        W49889   7.173   3.564   7.795  0.0545  0.0411 -0.3300
    1W        W49890  25.814  25.010   8.163  0.3470  0.3135 -0.0418
    1W        W49891  17.543   2.229   3.488 -0.1549 -0.0895  0.1377
    1W        W49892   3.186   5.430   0.757  0.0077 -0.1192  0.0163
    1W        W49893  17.945   6.981   3.026  0.0945  0.0535 -0.0964
    1W        W49894  24.530  28.670   8.490  0.0061  0.0950 -0.1336
    1W        W49895  20.031   7.236   2.984 -0.2051  0.2709 -0.2462
    1W        W49896  18.860   5.016   2.498 -0.2481  0.0855  0.3153
    1W        W49897  23.751   2.649   0.296  0.0148  0.0311  0.1438
    1W        W49898  11.500  22.969   6.666  0.0158  0.0088  0.0169
    1W        W49899  23.510  15.884   0.846 -0.0438  0.1856 -0.0984
    1W        W49900   2.721  16.032   5.967 -0.0900  0.0586 -0.0021
    1W        W49901   5.892  26.380   1.499 -0.1855 -0.1637 -0.2118
    1W        W49902  14.115  27.225   9.075  0.0720 -0.0143 -0.1589
    1W        W49903   8.060  12.563   0.901  0.0194  0.0276 -0.1417
    1W        W49904   0.903  28.452   6.374  0.0418  0.2269  0.1053
    1W        W49905  14.612   1.971   2.553 -0.2444 -0.2294  0.1784
    1W        W49906  19.186  12.522   0.227  0.0612 -0.1704 -0.0276
    1W        W49907   9.190  16.727   8.672  0.0138 -0.3547  0.0778
    1W        W49908  17.709   9.732   6.718 -0.0895 -0.2474  0.2465
    1W        W49909   9.713   4.344   8.705  0.0385  0.0179  0.0923
    1W        W49910   9.406   0.556   8.969  0.1903 -0.1736 -0.3589
    1W        W49911  22.241  21.759   0.107 -0.1223 -0.0573  0.3527
    1W        W49912   1.189   4.272   6.900  0.0614 -0.1060 -0.1299
    1W        W49913  11.784   8.317   8.933 -0.0254 -0.0905 -0.0562
    1W        W49914  27.285  16.183   6.546 -0.1483 -0.1175  0.0022
    1W        W49915   9.531  10.573   1.572 -0.0685 -0.1727 -0.0888
    1W        W49916  15.622  14.329   8.671 -0.0211 -0.0290  0.0796
    1W        W49917  30.085   3.314   8.308  0.1905 -0.3923  0.1536
    1W        W49918  19.222   3.036   2.245  0.0429 -0.0840  0.1273
    1W        W49919  18.095  28.503   1.206  0.1257  0.1798  0.0466
    1W        W49920  26.647   9.334   6.047  0.1665 -0.0025  0.0757
    1W        W49921  25.618   8.884   0.214 -0.1002  0.1280  0.1451
    1W        W49922   1.279  28.626   2.325  0.5150  0.0174 -0.0426
    1W        W49923  24.297   3.946   8.506 -0.0816 -0.0762  0.1161
    1W        W49924  19.608  17.974   2.233  0.1696  0.1393 -0.0030
    1W        W49925  22.957   4.640   6.750 -0.0585  0.1742  0.0196
    1W        W49926  28.880  26.542   6.318  0.1738  0.1358  0.3535
    1W        W49927  14.097  12.118   7.836  0.0675  0.0037  0.1308
    1W        W49928  22.487  14.690   0.901 -0.0838 -0.0339 -0.0484
    1W        W49929  21.695  28.263   8.432 -0.1877  0.0043 -0.0679
    1W        W49930  29.535  17.416   8.210  0.0986 -0.1883  0.1072
    1W        W49931   9.035   0.963   7.926  0.2116 -0.1615  0.0797
    1W        W49932   0.749  14.560   0.666  0.0991  0.1947 -0.1004
    1W        W49933  26.214  25.089   2.270 -0.2405  0.1975 -0.2988
    1W        W49934  18.739   4.730   9.394 -0.0010  0.2053 -0.3587
    1W        W49935  16.727   5.335   7.934  0.1166 -0.0595  0.3237
    1W        W49936  27.642   4.747   0.781 -0.4366  0.0760  0.3304
    1W        W49937  16.806  27.759   2.292 -0.1109  0.0055  0.0437
    1W        W49938   5.508  12.036   0.612  0.0295 -0.2812  0.0888
    1W        W49939  11.752  18.260   0.434 -0.0518 -0.0486  0.0738
    1W        W49940   9.859   7.935   3.442  0.0078  0.2058 -0.2121
    1W        W49941   4.796  13.720   0.856 -0.0138 -0.1758  0.2047
    1W        W49942  15.328  25.615   6.716 -0.2863  0.1798 -0.0507
    1W        W49943  28.782  24.279   9.245 -0.1300 -0.2594 -0.1660
    1W        W49944  26.309   4.787   8.893  0.1656 -0.2516  0.2845
    1W        W49945  20.968  29.763   2.716  0.2032  0.1893 -0.0128
    1W        W49946  13.156  24.047   3.155 -0.2227 -0.0080 -0.2203
    1W        W49947   4.061  28.175   1.248 -0.0555  0.0789  0.1472
    1W        W49948  24.896  30.146   2.624 -0.0368  0.0206  0.2582
    1W        W49949  14.483  26.131   0.249 -0.1417  0.2963  0.0939
    1W        W49950   4.139  18.818   8.262  0.2052  0.0968  0.2678
    1W        W49951   8.259   6.778   8.431 -0.0270  0.1220 -0.3023
    1W        W49952  28.414  27.536   2.212 -0.2477 -0.0581  0.0068
    1W        W49953  11.297  24.926   1.151 -0.2626  0.0316  0.1299
    1W        W49954  27.245  28.554   2.152 -0.0995  0.3276  0.2806
    1W        W49955   2.008  14.607   6.015 -0.0926  0.2742  0.0217
    1W        W49956  20.822  15.656   9.360 -0.2129 -0.3326 -0.4326
    1W        W49957  21.313  11.150   7.668  0.0932  0.0602 -0.0747
    1W        W49958  22.823  14.972   0.423 -0.1565  0.1251  0.1869
    1W        W49959  20.533   4.791   8.859  0.1900 -0.1198  0.1917
    1W        W49960  20.558   7.513   7.633  0.1582 -0.0879 -0.2142
    1W        W49961  16.407  19.834   1.180 -0.1351 -0.1179 -0.0267
    1W        W49962  13.434   4.593   7.939  0.0457 -0.0061  0.4544
    1W        W49963   7.512   7.689   0.674  0.0611 -0.1828 -0.0676
    1W        W49964  15.265  27.357   0.326  0.2072 -0.0437  0.0438
    1W        W49965  29.236  20.424   2.398  0.0315  0.0167 -0.2440
    1W        W49966  15.940   0.119   0.469 -0.2988 -0.2493  0.2165
    1W        W49967  20.090   1.511   7.576 -0.0958  0.0316 -0.4610
    1W        W49968   1.232   7.307   0.779  0.0817 -0.2634 -0.0756
    1W        W49969   1.542  28.978   2.588 -0.2995  0.2519  0.1692
    1W        W49970   6.430   2.233   8.170  0.1656 -0.3124  0.1547
    1W        W49971   7.336  14.194   1.773  0.1037 -0.1170 -0.1302
    1W        W49972  23.083  10.205   0.054  0.0318 -0.0368  0.0358
    1W        W49973   9.252   6.864   2.326  0.0037 -0.1225 -0.0103
    1W        W49974  19.602  25.835   0.135 -0.0740 -0.1263 -0.3881
    1W        W49975  22.864  26.876   7.967  0.1161 -0.2138 -0.1502
    1W        W49976  24.639  24.058   6.951  0.3168 -0.3087 -0.0019
    1W        W49977  10.991  22.961   1.117 -0.0848 -0.2398 -0.3553
    1W        W49978  19.492   6.645   2.487  0.0822 -0.2022 -0.2199
    1W        W49979   8.268   3.212   6.591 -0.0669 -0.1191 -0.2700
    1W        W49980  10.914  14.699   7.821 -0.0423 -0.0476  0.1674
    1W        W49981   2.369   7.289   2.935  0.2452  0.1071 -0.4633
    1W        W49982  15.206  30.080   7.020  0.0076 -0.1435 -0.1317
    1W        W49983  21.633  22.143   2.387  0.3115 -0.0615 -0.1223
    1W        W49984  30.156  11.506   7.055 -0.0785 -0.4035  0.3519
    1W        W49985   2.860   2.941   0.344  0.1005  0.1215 -0.0679
    1W        W49986  25.164   9.921   6.579  0.3111 -0.1266 -0.1143
    1W        W49987  17.064  15.519   0.450  0.0845 -0.2386 -0.0372
    1W        W49988   6.155  22.667   7.443  0.2740  0.2548  0.0977
    1W        W49989   0.807   5.752   7.400 -0.0838 -0.1273 -0.0217
    1W        W49990  28.556  16.661   1.258 -0.2278  0.0121  0.1073
    1W        W49991  27.322   5.977   0.446 -0.0246  0.1705 -0.0880
    1W        W49992  15.520  28.711   7.292  0.0470  0.0364  0.0217
    1W        W49993  29.190  15.391   8.492 -0.0381  0.0602  0.2619
    1W        W49994  11.462  23.702   1.448 -0.0648 -0.1705  0.1894
    1W        W49995  18.581   0.774   7.436 -0.1608 -0.1995 -0.0830
    1W        W49996  13.005  15.711   1.855 -0.0670  0.1281 -0.0543
    1W        W49997  16.516  27.507   9.323 -0.0462 -0.1605 -0.1492
    1W        W49998  22.475  10.581   7.873 -0.3614 -0.2797 -0.0546
    1W        W49999  17.495  28.851   7.772 -0.2619 -0.2791  0.1061
    1W        W50000  13.576  21.144   8.494 -0.1301  0.3998  0.1644
    1W        W50001  28.279   3.157   0.912 -0.0257 -0.0867 -0.1659
    1W        W50002  15.686  13.327   9.055 -0.0170  0.1692 -0.1632
    1W        W50003  22.915  16.980   6.561  0.0975 -0.0961 -0.0218
    1W        W50004  28.927  14.757   7.428  0.0643 -0.2566  0.0837
    1W        W50005   9.601   4.892   7.885 -0.1044 -0.1861  0.1367
    1W        W50006  21.077  25.738   2.507  0.2684 -0.3212  0.2521
    1W        W50007  18.928  16.266   1.944 -0.0314  0.0527  0.2174
    1W        W50008   2.022  13.314   5.651  0.0482  0.0924 -0.3264
    1W        W50009   1.490   1.408   0.964 -0.3517 -0.0373  0.2761
    1W        W50010  10.001  12.172   8.525  0.1236 -0.1024  0.3082
    1W        W50011  24.908   9.831   8.260  0.0423 -0.0764 -0.2584
    1W        W50012  17.054   2.710   3.692 -0.1262  0.1694 -0.0593
    1W        W50013  16.298  10.373   0.072 -0.1606  0.0772 -0.1084
    1W        W50014  20.825  11.539   0.168 -0.0507  0.0215 -0.0844
    1W        W50015  15.686   5.433   7.524  0.1734 -0.2342  0.1887
    1W        W50016   9.509  17.298   7.617  0.0859  0.2321 -0.1853
    1W        W50017  11.927  14.912   8.723  0.0341  0.3523  0.0383
    1W        W50018  22.288  21.734   6.631  0.0983  0.0268 -0.1618
    1W        W50019  23.201  15.541   6.846  0.0284 -0.1564  0.2040
    1W        W50020  23.172  25.958   8.490  0.3542 -0.0509 -0.3210
    1W        W50021   9.114  24.842   2.311 -0.4114  0.1756 -0.0557
    1W        W50022  28.427   1.585   1.869  0.0744  0.0729 -0.0473
    1W        W50023  21.984  19.522   8.851 -0.0342  0.2525  0.0121
    1W        W50024  17.002  18.732   1.973  0.0912 -0.0284  0.1210
    1W        W50025   8.012  19.057   0.014  0.1330  0.0145  0.0136
    1W        W50026   1.800  23.909   8.231  0.1309 -0.2166 -0.3181
    1W        W50027   5.102  12.558   0.965 -0.3288  0.1355  0.2289
    1W        W50028  21.051   3.824   0.139  0.0541 -0.2414 -0.0947
    1W        W50029  24.078   5.286   8.523  0.1077 -0.1433 -0.0605
    1W        W50030  17.766  23.588   2.248  0.0206  0.0693 -0.1218
    1W        W50031  23.504  28.755   6.480 -0.1230  0.0054 -0.2664
    1W        W50032  23.161  28.439   2.993 -0.2154  0.1434 -0.2838
    1W        W50033  11.290  20.413   2.361  0.2623  0.0254  0.0061
    1W        W50034  28.319  28.573   6.498  0.0081  0.0881 -0.1306
    1W        W50035  10.331  20.801   0.660 -0.0993  0.0977 -0.1996
    1W        W50036  14.009  24.133   1.006  0.0040  0.0277 -0.0805
    1W        W50037   3.941  20.230   9.038  0.1554 -0.1537 -0.1463
    1W        W50038  27.755  26.016   7.393 -0.1816 -0.1056 -0.2735
    1W        W50039   4.476   8.737   2.630 -0.2690 -0.1501  0.2914
    1W        W50040  26.113   3.101   0.695 -0.0586  0.0804  0.4084
    1W        W50041  20.123   2.950   0.876 -0.0383 -0.0219 -0.1775
    1W        W50042  10.161  17.251   7.767  0.1580  0.0971  0.2105
    1W        W50043  28.483   6.631   0.778 -0.2189  0.2245 -0.1478
    1W        W50044   2.868  26.626   0.101 -0.3433 -0.0682 -0.0921
    1W        W50045  18.636  20.958   8.478 -0.2078  0.3308 -0.0971
    1W        W50046  24.952  28.514   0.538 -0.1393  0.0865  0.2121
    1W        W50047  22.257  12.301   2.290  0.1175 -0.0639 -0.1027
    1W        W50048  15.302  28.465   6.926  0.1252  0.0034  0.4416
    1W        W50049   4.524  15.332   6.753  0.0288 -0.1603  0.3838
    1W        W50050   1.625   5.686   0.943 -0.1682 -0.0894 -0.4784
    1W        W50051  26.353   4.562   1.102  0.0348  0.1909  0.2965
    1W        W50052   8.253  20.348   1.650 -0.1937 -0.0343 -0.0097
    1W        W50053   1.874   8.940   0.704  0.1738 -0.0723  0.2832
    1W        W50054  16.083  15.289   1.192 -0.3088  0.0394  0.1912
    1W        W50055  13.675  27.293   7.613  0.0029  0.1277 -0.1680
    1W        W50056  23.789  24.549   9.319 -0.0149 -0.1206 -0.0481
    1W        W50057  25.734  28.938   2.747  0.2795  0.1652  0.1590
    1W        W50058   8.488  16.647   6.635 -0.0923  0.2560 -0.2514
    1W        W50059  21.998  12.704   2.527 -0.1602 -0.0375  0.0335
    1W        W50060  16.394   0.751   2.896 -0.3125 -0.2693 -0.1528
    1W        W50061  18.237  19.179   0.445 -0.1581 -0.0890 -0.3343
    1W        W50062   3.760  30.085   8.586 -0.3884 -0.4095 -0.0544
    1W        W50063  20.556   7.177   8.541  0.4300  0.1430 -0.1127
    1W        W50064  16.561   5.837   0.887  0.1847  0.1013 -0.1673
    1W        W50065  15.532  26.611   9.311  0.2884 -0.0727  0.0116
    1W        W50066  18.500  16.613   1.640 -0.0270  0.0739  0.0440
    1W        W50067  26.306  20.556   1.001 -0.0217 -0.1484  0.0619
    1W        W50068  13.016   4.684   8.703  0.0533  0.2607 -0.3190
    1W        W50069  11.645  25.226   6.717  0.0660 -0.1760 -0.1480
    1W        W50070  15.902   9.965   0.139 -0.2040  0.0236  0.1336
    1W        W50071  24.062  18.413   7.132 -0.2497 -0.1096  0.0289
    1W        W50072   7.217  15.993   8.131  0.0225 -0.1301 -0.1973
    1W        W50073  30.123   3.158   6.942  0.1831 -0.5747 -0.0909
    1W        W50074   0.371   4.063   2.622 -0.0446  0.2300 -0.1406
    1W        W50075   7.729  16.587   7.526  0.1184 -0.0536  0.0853
    1W        W50076  11.682   2.718   1.331 -0.1304  0.1190  0.1271
    1W        W50077   8.770  15.962   3.106 -0.1390 -0.0167  0.0565
    1W        W50078  26.331   2.359   8.823  0.2346 -0.1304  0.3065
    1W        W50079   6.764  25.763   0.831 -0.1169 -0.1324  0.0205
    1W        W50080   1.446  27.723   0.055 -0.0928 -0.0734  0.0286
    1W        W50081  28.108   1.523   6.905 -0.0727 -0.5146  0.0258
    1W        W50082   0.754  23.996   6.828  0.0617  0.3830  0.1242
    1W        W50083  22.056   9.083   6.838 -0.0469  0.0727 -0.2611
    1W        W50084  29.051  27.051   8.054 -0.0737 -0.3764  0.1780
    1W        W50085  18.916  25.919   1.088  0.2815 -0.2121  0.2838
    1W        W50086  18.829  13.599   0.368 -0.4620 -0.3296 -0.2703
    1W        W50087   3.518  13.703   7.360 -0.2312 -0.0515 -0.0544
    1W        W50088  21.216   7.071   1.002  0.3935 -0.1610  0.1131
    1W        W50089  19.817   6.508   2.128  0.2551  0.1731 -0.2918
    1W        W50090  15.864  19.970   8.532 -0.1423  0.0295  0.1279
    1W        W50091   4.736  22.581   8.840 -0.2575  0.3891  0.0416
    1W        W50092   7.154  29.400   6.879  0.2704  0.0137  0.1375
    1W        W50093  27.866  23.348   9.254  0.0824 -0.3175 -0.0280
    1W        W50094  17.048  22.543   6.377  0.1350 -0.0491  0.1648
    1W        W50095  12.174   9.956   0.962 -0.0567  0.2952 -0.0745
    1W        W50096  11.453  26.215   0.385  0.1416 -0.1298  0.1972
    1W        W50097  26.192   0.497   1.450 -0.0518 -0.2312 -0.1324
    1W        W50098  26.836   2.656   2.180 -0.0566 -0.0689 -0.1501
    1W        W50099  27.955  25.166   7.404 -0.0708 -0.1033  0.1561
    1W        W50100  26.003  16.677   9.084 -0.0362 -0.1054 -0.0646
    1W        W50101  23.097  16.600   1.280  0.0416  0.3472 -0.1985
    1W        W50102  15.491  13.215   2.113  0.1629 -0.1678  0.1442
    1W        W50103  16.983  21.135   1.766 -0.0176 -0.2169  0.4228
    1W        W50104   6.256  22.409   8.464 -0.0637  0.0167 -0.0137
    1W        W50105  11.320   1.909   9.209  0.0134 -0.2506  0.1169
    1W        W50106  12.784  27.619   0.198 -0.0516  0.1275 -0.1596
    1W        W50107  22.987   8.324   0.679 -0.0397  0.0295  0.0792
    1W        W50108  30.013  27.643   3.274 -0.0548 -0.0547  0.2897
    1W        W50109   9.742   8.429   2.711 -0.0176  0.2412 -0.0739
    1W        W50110  20.873  14.064   6.767  0.2579 -0.0231 -0.3398
    1W        W50111  10.075   0.734   2.896  0.2666 -0.2360  0.2022
    1W        W50112   6.520  27.898   3.052 -0.1587  0.2591 -0.0636
    1W        W50113  24.923  23.217   1.376  0.0402  0.0401 -0.2430
    1W        W50114   3.320  24.155   6.765 -0.0058 -0.1520  0.3591
    1W        W50115  10.280  17.044   9.207  0.0805 -0.0719  0.0269
    1W        W50116  14.811  19.732   7.607  0.3382  0.1132 -0.0602
    1W        W50117  22.064  26.151   1.078  0.3818 -0.2553 -0.1746
    1W        W50118  12.469   5.285   9.008 -0.1263 -0.0034  0.1167
    1W        W50119  21.487   3.565   1.197 -0.0128  0.0608  0.2193
    1W        W50120  17.333  25.890   6.298 -0.1496  0.0418 -0.0476
    1W        W50121   2.213   8.534   7.927  0.2274 -0.2083 -0.1952
    1W        W50122   5.644  20.679   8.178 -0.0394  0.2047 -0.0021
    1W        W50123  17.460  28.411   2.954 -0.0517 -0.3127  0.4342
    1W        W50124  30.136  28.905   1.800  0.1321  0.2822  0.4418
    1W        W50125  11.351  26.622   0.659  0.1019 -0.0762 -0.0437
    1W        W50126  11.419  27.410   2.241 -0.1971  0.4490  0.0990
    1W        W50127   8.335  20.348   8.057  0.2232  0.0435  0.0981
    1W        W50128  15.204  26.199   0.779  0.0740  0.0061 -0.3060
    1W        W50129  10.381  13.411   0.545  0.1373 -0.2469 -0.0118
    1W        W50130   4.679  11.919   1.871 -0.4277  0.0066  0.1499
    1W        W50131   8.494   5.332   7.511  0.1393 -0.0518  0.2929
    1W        W50132  13.693  20.188   0.302  0.1345 -0.0739 -0.0709
    1W        W50133  21.402  28.024   0.003 -0.1570  0.1527  0.1718
    1W        W50134   7.394  28.399   6.701 -0.0231 -0.1887  0.0680
    1W        W50135  16.966   4.519   7.814 -0.1583 -0.1768 -0.0637
    1W        W50136   8.743  16.200   0.226 -0.0423  0.1250  0.0296
    1W        W50137  11.621  25.828   0.825 -0.0529  0.1440  0.0388
    1W        W50138  27.517  20.860   6.365  0.0806  0.0656  0.2323
    1W        W50139  23.103   8.433   8.904 -0.2278 -0.0520 -0.0001
    1W        W50140   0.082  27.957   9.400 -0.0339 -0.0539 -0.3555
    1W        W50141  11.838   4.367   2.149  0.0038 -0.1085  0.1843
    1W        W50142  10.387  13.127   0.074  0.1825 -0.2165  0.0153
    1W        W50143  11.502  25.960   1.318 -0.1194 -0.3079 -0.1313
    1W        W50144  23.293  18.930   1.382  0.0488  0.2192  0.3387
    1W        W50145  20.060  11.605   0.563 -0.0579  0.0845 -0.1409
    1W        W50146  28.834  20.457   9.144 -0.1069 -0.1405  0.0287
    1W        W50147  19.228   8.792   1.741  0.1625  0.1906 -0.2546
    1W        W50148  15.248   4.347   3.187 -0.1569  0.3259 -0.1993
    1W        W50149   6.775  12.716   0.830  0.0064  0.0386  0.0673
    1W        W50150  17.716  18.073   8.684  0.0336 -0.0465 -0.0830
    1W        W50151  17.491   5.061   2.731 -0.1100 -0.0998 -0.0170
    1W        W50152  25.344  25.746   0.446 -0.0583  0.2621 -0.2126
    1W        W50153  17.579  24.616   2.418  0.0113  0.4386 -0.1227
    1W        W50154  11.661  14.063   1.365  0.0644  0.0347  0.1984
    1W        W50155  18.230   9.031   8.562 -0.1926 -0.0021 -0.1551
    1W        W50156   7.988  20.697   7.784 -0.2680  0.0181 -0.0442
    1W        W50157  18.236  28.476   8.106 -0.0921 -0.2561  0.0160
    1W        W50158   8.347   9.374   7.807  0.0361  0.0554  0.1803
    1W        W50159  26.652  23.760   2.986  0.2381  0.0436 -0.2367
    1W        W50160  21.702  16.259   6.314  0.1506  0.1620 -0.0783
    1W        W50161  17.603   8.483   7.151 -0.1341  0.0240 -0.2268
    1W        W50162   6.316  17.192   7.722 -0.1388  0.1113 -0.4999
    1W        W50163  27.640   3.923   1.225  0.4253  0.2470 -0.2049
    1W        W50164  14.808  13.978   8.909 -0.4117 -0.0864  0.1849
    1W        W50165   4.628  28.858   2.050 -0.4630 -0.1868  0.2446
    1W        W50166   0.888  26.767   8.019 -0.0472  0.3973  0.4774
    1W        W50167  20.832   8.683   9.285  0.5417 -0.2477 -0.0426
    1W        W50168  26.151  13.164   0.945 -0.3599  0.2247 -0.0831
    1W        W50169   3.025   6.084   1.394  0.1540  0.0188  0.0863
    1W        W50170  20.525  27.205   8.441  0.1302  0.1660 -0.0871
    1W        W50171  19.706   8.899   1.844 -0.1539  0.4445 -0.1117
    1W        W50172  26.983  13.037   6.129  0.0972  0.1262  0.0731
    1W        W50173  12.202  18.695   0.523 -0.2773  0.1418 -0.2324
    1W        W50174   5.064  14.807   8.436 -0.2698 -0.1796 -0.1250
    1W        W50175   0.179  18.452   7.938  0.0513  0.0419 -0.0141
    1W        W50176  18.750  19.305   8.238  0.1212 -0.0077  0.2691
    1W        W50177   6.986  13.589   0.528 -0.0993 -0.2303 -0.2628
    1W        W50178   0.246   3.787   1.474  0.0906 -0.1791 -0.1619
    1W        W50179  27.417  11.804   8.468  0.2151  0.0761  0.2333
    1W        W50180  18.685  15.305   9.219  0.1212 -0.1609 -0.2217
    1W        W50181  18.140  19.666   0.471  0.0374  0.0494  0.0693
    1W        W50182  29.341   3.587   7.572  0.0612  0.2473  0.0027
    1W        W50183  27.862  12.779   1.076  0.4337  0.1521 -0.3795
    1W        W50184   1.465  16.727   0.116  0.1469 -0.0301 -0.0927
    1W        W50185   9.829  21.624   0.291 -0.2257 -0.1998 -0.1440
    1W        W50186  18.261  16.067   1.101  0.0841 -0.0791  0.0225
    1W        W50187  11.213  22.516   0.430 -0.0881  0.0278 -0.0272
    1W        W50188  29.788  30.006   7.098  0.2885  0.0708 -0.0598
    1W        W50189   2.426  23.656   8.966 -0.3580  0.2623  0.2279
    1W        W50190  17.810  26.217   7.712  0.0347 -0.1071  0.0436
    1W        W50191   1.682  16.749   8.306  0.1642 -0.3865 -0.1082
    1W        W50192   7.395  28.148   2.042 -0.0299  0.0026 -0.4298
    1W        W50193  18.775  12.866   0.545  0.3029 -0.0147 -0.1232
    1W        W50194  17.566   3.652   2.009  0.3693 -0.1011 -0.2564
    1W        W50195  13.107  13.223   0.900 -0.0137  0.0179 -0.0780
    1W        W50196  28.832   3.022   6.537  0.1311 -0.1289  0.2061
    1W        W50197  14.287  10.018   8.132  0.0059 -0.0135  0.1764
    1W        W50198  13.766  28.488   1.896 -0.2139 -0.0591  0.1553
    1W        W50199  16.956  12.670   1.701  0.1340 -0.1312  0.1661
    1W        W50200  20.981   6.752   7.819  0.1551  0.1115  0.2889
    1W        W50201   8.556  16.502   9.200  0.0510 -0.0099 -0.2240
    1W        W50202  29.255  19.366   5.147 -0.4542 -0.0961 -0.3928
    1W        W50203  14.029  14.537   1.941  0.0417 -0.1243  0.0969
    1W        W50204   5.482  17.886   9.266  0.0312 -0.1155  0.3181
    1W        W50205  24.136  11.986   9.133 -0.1943 -0.1746  0.2070
    1W        W50206  27.428  25.857   7.080 -0.2429  0.1764 -0.1672
    1W        W50207   1.565   3.421   8.529 -0.2908  0.1103  0.0149
    1W        W50208   2.620  19.233   1.295 -0.0301 -0.1062  0.0544
    1W        W50209  24.019  11.962   7.226  0.2716 -0.0193  0.0984
    1W        W50210  17.315  25.517   2.088  0.0755 -0.0800  0.3726
    1W        W50211  20.220  19.769   7.676 -0.0403  0.0185  0.1832
    1W        W50212   6.485  14.421   6.401 -0.0799 -0.2335 -0.4398
    1W        W50213  26.063  14.941   2.164 -0.1548  0.0615  0.0306
    1W        W50214   9.534  15.535   7.894 -0.1291  0.0499 -0.1104
    1W        W50215  10.520  21.180   7.167 -0.0682 -0.0419 -0.3703
    1W        W50216  13.769  15.998   7.421  0.3979  0.2190 -0.1493
    1W        W50217  10.998   7.213   0.266  0.0300  0.1322  0.4712
    1W        W50218  16.186  15.297   2.083 -0.0465 -0.0478 -0.2007
    1W        W50219  14.182  26.781   1.405 -0.0115  0.0082  0.1403
    1W        W50220  13.177  13.516   0.510 -0.3699 -0.2344  0.0815
    1W        W50221  22.297   9.732   0.110 -0.1788 -0.0692  0.1022
    1W        W50222  15.858   1.870   2.910  0.1813  0.2072 -0.0123
    1W        W50223  13.832  28.550   3.397 -0.2358 -0.2578 -0.0570
    1W        W50224  26.539  28.203   0.655 -0.3565 -0.0213 -0.0127
    1W        W50225   1.519   1.688   2.623  0.0082  0.1076  0.3116
    1W        W50226  16.844  25.019   0.401  0.1994 -0.3082  0.2992
    1W        W50227   2.905  15.316   9.358  0.1813 -0.2450 -0.0530
    1W        W50228   8.794   4.360   7.967  0.0902 -0.0912 -0.2179
    1W        W50229  21.871   9.205   7.444  0.0733 -0.2184  0.0767
    1W        W50230  12.393  20.455   6.569  0.0302  0.1353 -0.2639
    1W        W50231   0.021  18.065   6.623  0.2739 -0.4481 -0.0198
    1W        W50232  15.984  15.229   0.413 -0.1665  0.1561 -0.1378
    1W        W50233   3.957  24.100   8.532  0.1117 -0.1715  0.0199
    1W        W50234  16.417   4.133   9.298  0.0817  0.1076 -0.1064
    1W        W50235   3.493  21.785   8.394 -0.1162  0.5399 -0.1230
    1W        W50236  29.814   4.992   0.280  0.3773 -0.2492 -0.3340
    1W        W50237  14.150  16.054   6.578 -0.1120  0.1193  0.0477
    1W        W50238  14.602  16.958   8.065 -0.0697 -0.2362  0.1210
    1W        W50239  24.969  15.057   5.652  0.0239 -0.2595  0.1728
    1W        W50240  22.438  27.102   9.324 -0.0726 -0.1355  0.1116
    1W        W50241  29.214  25.459   1.461 -0.0857  0.1442 -0.0582
    1W        W50242   2.684  29.675   8.648 -0.0806 -0.2800 -0.4201
    1W        W50243   4.169  21.540   5.661  0.1708 -0.1163  0.0026
    1W        W50244  12.387   9.079   2.560 -0.1507 -0.0001  0.3032
    1W        W50245  15.374   8.054   2.367 -0.1973  0.1268 -0.2130
    1W        W50246   6.170  15.143   6.768 -0.2806  0.2736 -0.0750
    1W        W50247  25.625  14.575   6.799  0.0974 -0.0208  0.2321
    1W        W50248   9.761   6.238   0.778 -0.0850  0.1700 -0.0713
    1W        W50249  12.524  11.514   0.222  0.2915 -0.1518 -0.0709
    1W        W50250  10.706  26.205   8.472  0.0458 -0.1098  0.0221
    1W        W50251   9.174   8.916   1.131  0.3221  0.1048 -0.0946
    1W        W50252   7.624  23.679   2.709  0.1405  0.1892 -0.1794
    1W        W50253  28.301  25.468   7.875 -0.1900 -0.0611  0.0672
    1W        W50254   3.952   0.903   2.009 -0.0395 -0.0265  0.2864
    1W        W50255  15.062  28.035   9.139  0.1546 -0.0599 -0.0658
    1W        W50256   4.053  19.787   5.449  0.1853  0.1286 -0.0319
    1W        W50257   4.129  20.498   8.536  0.0716  0.3070  0.0677
    1W        W50258  14.273  24.306   2.967 -0.4602 -0.2290 -0.1181
    1W        W50259   9.137  29.839   7.875 -0.0894  0.3571 -0.0046
    1W        W50260  18.566   5.152   2.914 -0.0983 -0.0171  0.3268
    1W        W50261  25.568   7.652   1.884 -0.3245  0.2186  0.2887
    1W        W50262  11.589   6.138   2.661 -0.3193  0.0868 -0.2578
    1W        W50263  10.970   0.346   0.507  0.1043  0.0260  0.2179
    1W        W50264  25.085  17.575   5.335 -0.3234  0.3436  0.0601
    1W        W50265  28.056   8.114   1.173  0.0956 -0.1323 -0.1969
    1W        W50266   2.754  13.150   8.650 -0.0608  0.0035  0.1939
    1W        W50267  26.382  18.093   1.140 -0.2491  0.4202  0.1443
    1W        W50268   1.005   3.427   8.587 -0.2384  0.0366  0.0455
    1W        W50269  21.913  10.776   8.820  0.0982 -0.0274  0.0104
    1W        W50270   0.516  15.747   8.021 -0.1087 -0.1936  0.0226
    1W        W50271  21.153  17.908   6.462 -0.0394  0.0077  0.0401
    1W        W50272  22.086  18.269   1.498 -0.0951 -0.1818 -0.3908
    1W        W50273  26.475   7.590   6.086  0.1509  0.2878  0.0241
    1W        W50274   2.139   0.693   2.568 -0.1189 -0.3042 -0.0154
    1W        W50275  20.445   6.121   0.155 -0.1357  0.1639 -0.0066
    1W        W50276  13.127  12.903   1.370  0.1164 -0.0619 -0.0976
    1W        W50277   3.045   1.462   6.526  0.0227 -0.2634  0.2280
    1W        W50278  28.282  24.949   6.535  0.0899  0.0134  0.0104
    1W        W50279   1.347   5.937   1.246  0.1069 -0.0947 -0.2472
    1W        W50280  15.536  20.739   0.487  0.4135 -0.0487 -0.0478
    1W        W50281  18.469  22.376   1.890 -0.1595  0.1128  0.2774
    1W        W50282   5.321   3.171   3.678  0.3102  0.1545 -0.1544
    1W        W50283  10.482  17.051   8.174  0.1121  0.0344  0.1179
    1W        W50284  18.288   0.510   1.927  0.0995  0.0346  0.1932
    1W        W50285  24.903  14.399   8.563  0.0498  0.2117  0.2786
    1W        W50286   7.089  29.899   8.858 -0.1004 -0.1812  0.4308
    1W        W50287  24.859  29.926   2.052  0.1841  0.0071 -0.0526
    1W        W50288   9.255  22.571   6.210  0.2516 -0.0618 -0.1156
    1W        W50289  24.494  10.622   8.810  0.2734  0.1714 -0.0218
    1W        W50290  14.798  16.191   1.279 -0.1516 -0.0744 -0.1937
    1W        W50291  24.391  21.952   8.705 -0.5736  0.4605  0.3198
    1W        W50292  24.661   2.936   0.507  0.0482  0.0534  0.0513
    1W        W50293   6.229   1.777   8.374 -0.1518  0.2282 -0.0575
    1W        W50294  25.574  22.150   0.670 -0.2249  0.2460  0.0905
    1W        W50295   1.582  16.809   2.038  0.1647  0.3621  0.2666
    1W        W50296  22.410   2.347   7.469 -0.3189 -0.2127 -0.0575
    1W        W50297   8.050  29.479   2.322  0.4088 -0.3169  0.1900
    1W        W50298  21.386  27.699   3.154 -0.0513  0.2434  0.1176
    1W        W50299   2.934  21.323   0.333  0.0528  0.0227  0.0703
    1W        W50300  11.142  21.056   0.731  0.2434  0.2767 -0.1236
    1W        W50301  20.829  28.320   0.682  0.2053 -0.0637  0.0354
    1W        W50302  13.714  26.698   1.491  0.2583 -0.0994  0.0028
    1W        W50303  17.810   1.480   8.990 -0.0244  0.1989  0.1015
    1W        W50304  14.750  21.086   2.666  0.1530 -0.0407  0.1604
    1W        W50305   5.597  19.354   6.975  0.1059  0.0575  0.0276
    1W        W50306  15.206  18.120   1.012  0.0008  0.0382  0.1221
    1W        W50307  20.590   4.778   2.378  0.0210  0.0770  0.2070
    1W        W50308  17.709  26.532   9.130  0.0051 -0.0102 -0.2971
    1W        W50309  24.517   8.461   2.201 -0.3614  0.0034  0.1712
    1W        W50310   1.050  23.781   9.333  0.1305 -0.1508 -0.0931
    1W        W50311   2.179   1.541   1.987  0.0293 -0.0753  0.1336
    1W        W50312  17.459   1.432   1.634  0.0587  0.1380 -0.2541
    1W        W50313  19.474  15.235   1.256  0.0155 -0.0861  0.0962
    1W        W50314  24.481   1.337   2.196 -0.1194  0.0381 -0.0774
    1W        W50315  11.860  23.715   7.701  0.1625  0.3492  0.0432
    1W        W50316  18.515  27.203   2.004 -0.1555 -0.0178 -0.2013
    1W        W50317  12.542  19.211   2.005 -0.0891 -0.1279 -0.1602
    1W        W50318  19.964   5.570   8.548 -0.1638  0.2519 -0.1313
    1W        W50319  21.769   5.625   0.392  0.2952  0.2328  0.0785
    1W        W50320   0.970  13.440   7.702  0.1027  0.0522 -0.0544
    1W        W50321  28.422   8.460   1.523  0.0580 -0.2891 -0.0283
    1W        W50322   4.581   1.933   7.240 -0.0217  0.0476 -0.0819
    1W        W50323  22.411  27.765   1.814 -0.0715  0.0260  0.2278
    1W        W50324   7.086  13.082   1.029  0.1897 -0.0046 -0.0153
    1W        W50325  28.265  25.413   6.728 -0.2770 -0.0229  0.1033
    1W        W50326  24.436   6.761   8.285 -0.1390  0.0690  0.1815
    1W        W50327  11.022   8.420   3.123 -0.1493  0.0773 -0.0896
    1W        W50328  11.014   8.753   0.877  0.0169  0.1370  0.2099
    1W        W50329   1.892   0.164   3.485 -0.0700  0.2553  0.1255
    1W        W50330  10.463   1.067   7.757 -0.1131  0.1244 -0.0561
    1W        W50331  21.092  19.147   6.356 -0.2391 -0.4141  0.2781
    1W        W50332   6.968  19.894   0.297 -0.3067 -0.2073 -0.0531
    1W        W50333   0.054  17.777   6.996 -0.1199  0.2695 -0.1317
    1W        W50334  20.056  18.949   7.704 -0.0497 -0.0480  0.1392
    1W        W50335  28.317   9.272   0.779 -0.0471 -0.1034 -0.1332
    1W        W50336  25.524  16.081   8.671  0.2502 -0.2181  0.2995
    1W        W50337  10.941  19.253   7.477 -0.1357 -0.0713  0.0348
    1W        W50338  17.235   4.157   3.106  0.0394 -0.1656 -0.2663
    1W        W50339   2.432  18.110   0.888  0.1151  0.0985  0.0778
    1W        W50340   3.582   8.248   2.970 -0.0877  0.1266 -0.3651
    1W        W50341  19.563   8.427   1.863 -0.0023 -0.1998 -0.2637
    1W        W50342  10.797   4.033   2.096 -0.2164  0.0227  0.0552
    1W        W50343  29.177  21.386   8.143  0.2208 -0.1116  0.1493
    1W        W50344  10.336   3.424   0.578 -0.0913  0.0141  0.2077
    1W        W50345  11.329   1.335   1.236 -0.2120 -0.0965 -0.1654
    1W        W50346  13.598  13.086   6.803  0.2765 -0.2083  0.1887
    1W        W50347   2.301   5.638   7.132 -0.1387 -0.0147 -0.1982
    1W        W50348  26.131   0.138   2.020  0.0514  0.2158  0.0474
    1W        W50349   5.663  26.031   8.981  0.1320 -0.1778 -0.1409
    1W        W50350  29.938   2.785   1.449 -0.1672 -0.0927 -0.0103
    1W        W50351   2.750   3.545   8.752  0.2996 -0.2219  0.0338
    1W        W50352  25.659  24.320   9.370 -0.2300  0.0138  0.1037
    1W        W50353  29.642  21.361   0.275 -0.2421  0.0094 -0.1542
    1W        W50354   9.754  27.392   2.729 -0.1092 -0.2232 -0.0066
    1W        W50355  24.813  20.071   6.932  0.0900  0.0262 -0.1471
    1W        W50356  15.852  15.071   7.793 -0.0668 -0.4226 -0.0985
    1W        W50357  13.052  22.717   7.342 -0.2681 -0.0691  0.2136
    1W        W50358  21.752  17.717   1.074  0.1580 -0.1544  0.0438
    1W        W50359  21.914  15.867   7.301  0.0961  0.2349  0.1498
    1W        W50360  15.526   1.814   3.493 -0.0075 -0.2855  0.0928
    1W        W50361  19.088  19.291   9.203  0.0909  0.1298 -0.0840
    1W        W50362  18.940  20.926   7.941 -0.2911 -0.0615 -0.3195
    1W        W50363   8.277   5.724   2.545 -0.1109  0.1930 -0.1478
    1W        W50364  19.498  11.328   8.027 -0.1367  0.1721  0.1580
    1W        W50365  25.128  22.038   2.626 -0.1374 -0.0002  0.4305
    1W        W50366  19.873  28.925   0.010 -0.2134  0.1249  0.0520
    1W        W50367   4.381   9.862   0.207  0.0139  0.1137 -0.4708
    1W        W50368   3.339   1.462   0.378 -0.1008 -0.1241 -0.1642
    1W        W50369  22.683  15.745   6.068  0.1295 -0.0251 -0.1827
    1W        W50370   0.250  27.167   2.256  0.2677 -0.2967  0.1643
    1W        W50371   8.283   3.696   8.329 -0.0842 -0.2294 -0.0017
    1W        W50372  21.532  19.260   8.792 -0.3145 -0.0697  0.0443
    1W        W50373  21.208  11.282   0.082  0.1083 -0.0869  0.0903
    1W        W50374   3.942  26.674   7.076  0.0922 -0.1804 -0.3499
    1W        W50375  12.986  13.772   1.577 -0.0100  0.0807  0.0592
    1W        W50376  16.713  27.318   2.546 -0.0125 -0.1830  0.3717
    1W        W50377  20.790  11.940   6.877 -0.1971  0.2487  0.1951
    1W        W50378   8.873   7.535   7.912 -0.3213 -0.0243  0.2013
    1W        W50379   1.662  14.961   1.228  0.0680  0.1239 -0.0883
    1W        W50380  12.093   9.195   7.922  0.1438  0.1543 -0.1298
    1W        W50381  10.495  26.928   2.201  0.0065  0.1680 -0.2829
    1W        W50382  12.730  22.523   8.146  0.1374  0.0216  0.2954
    1W        W50383  20.346  12.824   0.542  0.1120 -0.2338  0.0260
    1W        W50384  14.014   0.608   2.420  0.2153  0.0484 -0.0073
    1W        W50385   5.687  21.680   1.456 -0.1554  0.1517  0.0605
    1W        W50386  27.559  12.941   8.065  0.1686 -0.1797 -0.1231
    1W        W50387  14.199  26.932   8.314 -0.0729 -0.0745  0.4320
    1W        W50388  12.058   4.327   7.856 -0.1139 -0.4564  0.2073
    1W        W50389   7.164  17.476   9.024  0.1173  0.1023 -0.2925
    1W        W50390  24.881  23.863   7.357 -0.0636 -0.0116 -0.1749
    1W        W50391   5.925   3.570   3.024 -0.0845 -0.3242 -0.0564
    1W        W50392  12.001  11.351   7.098  0.1884  0.0453  0.0600
    1W        W50393   5.181   1.275   7.652  0.2231 -0.2948 -0.0565
    1W        W50394   3.112   6.224   7.491 -0.1878 -0.1072 -0.0778
    1W        W50395  20.110   3.133   3.516 -0.0175  0.0080  0.2878
    1W        W50396  29.347  27.234   0.556  0.1817 -0.1519  0.0950
    1W        W50397  28.315  17.968   7.424 -0.0542 -0.3012 -0.4077
    1W        W50398  11.275  29.595   1.095 -0.1546  0.2539  0.1233
    1W        W50399   2.077  24.462   6.295  0.0196 -0.0358 -0.1052
    1W        W50400   0.238  19.910   8.773 -0.4399 -0.0746 -0.0717
    1W        W50401  24.410  26.225   8.120  0.3503 -0.1515 -0.1193
    1W        W50402  22.819  26.683   0.044 -0.1527  0.2850 -0.0362
    1W        W50403  12.916  18.400   8.466 -0.1737  0.0449 -0.1528
    1W        W50404   1.526  16.677   6.933 -0.2999  0.2716 -0.0724
    1W        W50405  20.335  15.457   0.070 -0.1264 -0.0369  0.2266
    1W        W50406   3.402  13.190   1.753 -0.3207 -0.0922 -0.0154
    1W        W50407  12.011  23.665   1.887  0.2493 -0.0679  0.0478
    1W        W50408   6.462  28.844   9.105  0.1059 -0.4246  0.3684
    1W        W50409  10.458  20.288   7.146  0.0311 -0.2463  0.0180
    1W        W50410   6.742  14.054   1.785 -0.1578  0.2133  0.2105
    1W        W50411  20.851  23.510   0.422 -0.1191  0.0413 -0.1242
    1W        W50412  21.324   5.260   7.606  0.1478 -0.1327  0.2340
    1W        W50413  11.574  29.545   0.667 -0.1287 -0.2538 -0.3521
    1W        W50414   0.790   4.368   0.991  0.0647 -0.0347  0.0728
    1W        W50415  10.109  28.162   6.897 -0.1710  0.2388 -0.4506
    1W        W50416   3.497  22.863   8.951  0.0785  0.0056  0.2718
    1W        W50417  28.845  15.017   8.585 -0.0562 -0.0988 -0.0110
    1W        W50418  25.910  21.433   2.379  0.1406  0.1108  0.0001
    1W        W50419  10.269  26.682   8.688  0.1686 -0.0263 -0.0210
    1W        W50420  16.373  29.826   7.181  0.0969 -0.1073 -0.0082
    1W        W50421  26.643  28.931   0.178  0.1875 -0.3145  0.1377
    1W        W50422  11.294  18.772   7.338 -0.0124 -0.0215  0.0226
    1W        W50423   9.065  19.753   9.301 -0.0147 -0.2346  0.0637
    1W        W50424  18.398   6.576   3.094 -0.1872 -0.0322 -0.1813
    1W        W50425   0.163   7.457   0.857 -0.3168 -0.0004 -0.0582
    1W        W50426  28.113  15.497   5.632  0.2897  0.0233  0.1002
    1W        W50427  27.738   8.419   7.854 -0.1141  0.1331  0.1179
    1W        W50428   1.195  10.184   8.977 -0.2993  0.1256  0.1368
    1W        W50429   1.849  15.943   1.719  0.4023  0.1468 -0.2214
    1W        W50430  14.947   3.136   0.872 -0.0499  0.1397  0.1622
    1W        W50431  18.973  28.979   8.297 -0.1763 -0.4444  0.2376
    1W        W50432  20.902  16.659   0.222  0.0578 -0.3303  0.2527
    1W        W50433  10.037   8.585   1.379 -0.2435 -0.2365 -0.0410
    1W        W50434  24.416  29.154   1.730 -0.0618 -0.1110  0.0475
    1W        W50435  24.348   3.051   7.091 -0.1724  0.2052  0.3381
    1W        W50436   9.713   6.703   1.066 -0.0603  0.0168 -0.0198
    1W        W50437  11.607  29.232   1.203  0.1913 -0.1490  0.0188
    1W        W50438  26.789  21.660   1.258 -0.0990  0.0871 -0.1378
    1W        W50439  29.059   4.336   6.888  0.0501 -0.0230  0.1645
    1W        W50440  22.149   0.567   7.905 -0.1869 -0.1130  0.1161
    1W        W50441  18.966  10.597   0.972  0.0767  0.0896 -0.3164
    1W        W50442  12.754  17.591   7.392 -0.1082  0.1527  0.0941
    1W        W50443  28.359  27.907   1.840  0.0089 -0.0921 -0.3261
    1W        W50444   7.350  23.284   6.388 -0.2125  0.3224 -0.0382
    1W        W50445  19.846  15.822   1.243  0.0821  0.1235  0.2380
    1W        W50446  17.569  29.705   1.436  0.3420 -0.1300  0.1127
    1W        W50447   9.484  27.901   0.461 -0.0206  0.2025  0.0398
    1W        W50448  15.203  23.446   0.359  0.0902 -0.2108  0.0933
    1W        W50449  27.492   2.552   1.446 -0.0491 -0.1772  0.3527
    1W        W50450   4.978   8.334   2.328  0.1047 -0.1772  0.0013
    1W        W50451  28.092  19.053   6.903  0.0285 -0.1768 -0.0416
    1W        W50452   9.317  19.526   0.431 -0.0325  0.1379 -0.0443
    1W        W50453  16.154  13.404   1.726 -0.0286  0.1450  0.0878
    1W        W50454  22.836  24.735   7.798 -0.0266  0.0131  0.3429
    1W        W50455  15.697  22.260   8.228  0.0552  0.1310  0.0852
    1W        W50456  16.577  24.950   1.972 -0.0379 -0.1067  0.0518
    1W        W50457  16.646  13.053   6.639  0.0018  0.0109  0.0885
    1W        W50458  23.737   1.609   6.093  0.1815 -0.0320  0.2104
    1W        W50459  19.063  19.484   0.939  0.0006  0.1468  0.0409
    1W        W50460   6.530  25.342   0.923 -0.0265 -0.2292  0.0417
    1W        W50461  11.990  28.241   8.522 -0.1451  0.1470 -0.1392
    1W        W50462  26.882   9.770   8.314 -0.0856  0.2256  0.0093
    1W        W50463   1.555  10.050   6.973 -0.0796  0.3913  0.1786
    1W        W50464   6.443  18.909   6.223 -0.1786 -0.0081  0.0164
    1W        W50465   0.404  11.833   2.447 -0.2491  0.1391 -0.1168
    1W        W50466  15.405  27.211   1.778  0.0377  0.0320  0.2500
    1W        W50467  13.625  20.483   9.175  0.0644 -0.0824 -0.1794
    1W        W50468  18.278   7.117   2.652  0.1740  0.0146 -0.1630
    1W        W50469  10.479  18.213   1.417  0.0144  0.4198 -0.1423
    1W        W50470  10.732   9.596   2.173  0.3428 -0.0729 -0.0901
    1W        W50471  15.015  29.099   6.369  0.1584  0.0290  0.0474
    1W        W50472  25.784  19.144   7.770 -0.1343 -0.0324  0.0563
    1W        W50473  29.862  22.052   1.044 -0.0098 -0.1750 -0.0881
    1W        W50474  13.393   9.610   2.576  0.2596 -0.0075 -0.2547
    1W        W50475  15.220  23.885   1.188 -0.0567  0.1367 -0.0930
    1W        W50476  15.604  27.553   8.135 -0.0895 -0.0401  0.1365
    1W        W50477   5.326  18.155   8.609  0.2040  0.1048  0.2040
    1W        W50478  13.425   8.419   8.404 -0.0054 -0.2458  0.2190
    1W        W50479   8.964  15.111   8.027  0.2214 -0.0420 -0.0032
    1W        W50480  30.099   3.767   6.973 -0.1305 -0.2251  0.2250
    1W        W50481  26.873   4.449   6.386 -0.2147 -0.0787  0.0460
    1W        W50482  12.799   9.608   1.217 -0.1779  0.0842  0.1713
    1W        W50483   2.683  21.832   7.525  0.0209 -0.0636  0.1177
    1W        W50484  27.128  24.826   3.186 -0.1506  0.0619  0.0559
    1W        W50485  26.234  10.455   5.507  0.3335  0.0822 -0.1321
    1W        W50486   7.600  29.861   8.983 -0.2152  0.2603  0.3886
    1W        W50487  19.238  24.755   7.098  0.0865 -0.2675 -0.1154
    1W        W50488  10.791  11.798   0.124 -0.0170  0.2863  0.2116
    1W        W50489  23.660   0.573   8.779 -0.0305  0.1657 -0.1482
    1W        W50490  15.815   4.950   6.805  0.1564  0.3201  0.1736
    1W        W50491  20.418  13.496   2.210  0.2777  0.3677  0.2533
    1W        W50492   2.019   2.419   1.810  0.0575 -0.2372  0.2505
    1W        W50493   9.350   3.977   1.584  0.1717 -0.0983 -0.0969
    1W        W50494  19.241  21.670   8.380  0.2748 -0.0155 -0.1334
    1W        W50495   8.611   4.542   0.098 -0.1692 -0.2240 -0.0521
    1W        W50496   1.114  17.622   9.272 -0.0387  0.0992 -0.0508
    1W        W50497  14.541  13.891   9.319  0.0108  0.0216  0.0429
    1W        W50498  26.360  28.909   2.063  0.3341  0.5261  0.4397
    1W        W50499  18.820  18.737   0.781 -0.0449 -0.0341 -0.1728
    1W        W50500  22.357  14.022   7.336  0.2059  0.1756 -0.4200
    1W        W50501  19.707  17.321   8.932 -0.3939 -0.0777 -0.1329
    1W        W50502   0.945  21.906   7.364 -0.0627  0.0037  0.1627
    1W        W50503  16.614  18.373   8.786 -0.2542 -0.3159  0.4073
    1W        W50504   6.902  22.474   8.422  0.0447 -0.0891  0.0987
    1W        W50505   8.700  19.646   7.254  0.0676 -0.4057  0.0024
    1W        W50506  14.597  24.104   0.483  0.0744  0.0804 -0.1702
    1W        W50507   3.664   4.499   1.197 -0.0545  0.1526  0.0860
    1W        W50508   0.116   5.015   6.323  0.2045 -0.1024 -0.0459
    1W        W50509  16.212  14.834   1.050  0.1285  0.0792  0.2477
    1W        W50510  22.241   2.989   5.975  0.2594  0.0492  0.1458
    1W        W50511  27.126   0.930   1.260 -0.2721  0.0490  0.0355
    1W        W50512  25.908  13.490   5.237 -0.1126 -0.4595  0.0468
    1W        W50513  10.519   7.318   2.163 -0.2361 -0.0955  0.3747
    1W        W50514  27.119  13.769   2.210  0.1049  0.1416 -0.2175
    1W        W50515   3.358   6.097   7.949 -0.1962 -0.4383 -0.1209
    1W        W50516   1.140  12.974   0.144  0.2396  0.0878  0.1733
    1W        W50517  22.826  22.744   0.939  0.3024 -0.2641 -0.0577
    1W        W50518   9.231  22.930   8.540  0.1363 -0.1061 -0.3809
    1W        W50519  15.103  29.733   2.801  0.3842  0.1401  0.0554
    1W        W50520  28.854   0.282   1.414  0.0283 -0.3895  0.1491
    1W        W50521   3.516   3.323   6.047 -0.3938 -0.1898 -0.0562
    1W        W50522  17.346  10.681   0.022 -0.2393 -0.4117 -0.0089
    1W        W50523  28.477  12.081   6.126 -0.0939  0.0016  0.0285
    1W        W50524  16.282  27.037   7.410 -0.0564  0.0697  0.1565
    1W        W50525  17.857   9.952   8.459 -0.0794  0.0769 -0.1813
    1W        W50526  13.787  27.645   8.312 -0.2118  0.1022 -0.0274
    1W        W50527  11.340   6.404   1.282  0.0684  0.0762  0.0950
    1W        W50528  16.201  17.552   0.930 -0.1261  0.3197  0.1012
    1W        W50529  20.154  27.973   0.850  0.1844  0.4792  0.1897
    1W        W50530   6.952  23.044   8.419  0.0136  0.3713  0.0603
    1W        W50531   6.484  22.693   6.974 -0.0108  0.0181 -0.0202
    1W        W50532  26.847  19.182   5.956  0.1156 -0.1663  0.2144
    1W        W50533  17.860  22.763   1.802 -0.2207  0.0229 -0.2005
    1W        W50534   9.383  25.333   2.387 -0.1763  0.1312 -0.0226
    1W        W50535   5.742  15.408   9.238 -0.0247  0.1427  0.1794
    1W        W50536  15.641  28.545   0.352  0.1198 -0.1683 -0.1253
    1W        W50537  19.301   7.919   9.111  0.1671 -0.2454  0.0665
    1W        W50538   6.291   8.076   1.674 -0.2767  0.0038  0.0854
    1W        W50539   3.402  16.122   0.805 -0.0544  0.3642  0.1541
    1W        W50540  24.760   0.813   9.174 -0.0222  0.4909 -0.0918
    1W        W50541   1.772  20.512   6.706  0.1433  0.2441 -0.0058
    1W        W50542  11.187   4.599   9.105 -0.1359 -0.0694 -0.0422
    1W        W50543   7.315   0.955   1.072  0.0213 -0.1726 -0.0446
    1W        W50544  27.705  27.206   1.464 -0.0214 -0.4446  0.2110
    1W        W50545  12.419  19.469   1.525  0.0956  0.1399  0.2213
    1W        W50546  15.930  13.360   8.443 -0.2102  0.2316  0.1071
    1W        W50547  16.856   9.889   8.516 -0.0035 -0.1983 -0.1076
    1W        W50548  18.424  28.925   7.990 -0.0520 -0.2183 -0.1010
    1W        W50549  22.224  28.932   8.662 -0.1485  0.3616  0.1106
    1W        W50550  11.505  21.978   8.134 -0.0898  0.1198 -0.1008
    1W        W50551  24.638   0.703   7.174 -0.2451 -0.0385  0.1710
    1W        W50552  11.537   2.283   2.986  0.0929  0.3367 -0.3970
    1W        W50553  13.762  30.105   2.771  0.1068 -0.1606 -0.1941
    1W        W50554   1.341  16.556   7.996 -0.1797 -0.0336  0.1479
    1W        W50555  18.800   2.118   8.221  0.0103  0.2086  0.0990
    1W        W50556  22.723  27.470   1.289  0.1578  0.1054  0.1230
    1W        W50557   7.505   6.216   7.135  0.0301 -0.3083 -0.1889
    1W        W50558   2.350  25.014   6.107  0.0710  0.4188  0.0088
    1W        W50559   7.425   0.774   1.806  0.1628 -0.5261 -0.2379
    1W        W50560   8.142  27.978   1.375  0.1707 -0.0860 -0.4203
    1W        W50561   7.809   7.475   3.025  0.1752  0.2004 -0.1306
    1W        W50562   1.389  14.744   8.866 -0.0408 -0.3918  0.0038
    1W        W50563  22.203   3.322   0.324 -0.4176 -0.0815 -0.1366
    1W        W50564  25.505  12.989   6.350 -0.1063 -0.0111  0.2583
    1W        W50565   9.162   6.842   3.476  0.0529  0.2841 -0.3542
    1W        W50566   6.197  11.749   1.341 -0.1977 -0.1432  0.0953
    1W        W50567   2.733  25.366   7.638  0.2101 -0.2858 -0.0392
    1W        W50568  28.453  16.046   2.085 -0.3828  0.1178 -0.1762
    1W        W50569   0.132  28.607   3.123 -0.1419 -0.1893  0.0085
    1W        W50570  10.874  14.179   1.553  0.0139 -0.0257 -0.2005
    1W        W50571  26.288   6.872   1.728 -0.0001 -0.2260 -0.1352
    1W        W50572  10.034  23.743   6.732  0.0088  0.2228  0.1538
    1W        W50573  20.932  21.262   7.809 -0.1167  0.1436  0.0294
    1W        W50574  15.703   2.111   1.910  0.0011  0.1198  0.3191
    1W        W50575  14.318  22.750   0.714  0.4714  0.0420 -0.2361
    1W        W50576  11.061  17.990   7.612 -0.1628  0.3282 -0.1826
    1W        W50577  10.723  10.804   3.412  0.1470  0.0178  0.0516
    1W        W50578   2.670  15.888   0.555 -0.1487  0.3787 -0.2480
    1W        W50579  13.517   2.573   1.620  0.0804 -0.1437  0.1745
    1W        W50580  21.401  18.117   1.918 -0.3605 -0.0778 -0.1286
    1W        W50581   6.682   5.914   8.067 -0.0049  0.1146 -0.0704
    1W        W50582   1.369  18.874   7.657 -0.3623  0.0874 -0.0071
    1W        W50583  28.882   6.524   7.180  0.2123  0.2519 -0.0514
    1W        W50584  21.178  27.228   0.339 -0.0276  0.0014 -0.2035
    1W        W50585  14.732   8.445   2.135  0.0218  0.1564 -0.0275
    1W        W50586   0.598  21.806   0.535  0.0316  0.0057  0.1333
    1W        W50587  17.940   0.408   2.867 -0.0685 -0.0619 -0.2145
    1W        W50588   3.138   5.252   1.320 -0.0086 -0.1501 -0.2843
    1W        W50589  26.577  18.444   0.754 -0.2631 -0.3400 -0.2462
    1W        W50590  16.951  22.547   2.928  0.0439 -0.0512 -0.1399
    1W        W50591  16.400  17.555   8.947 -0.2308 -0.0921 -0.0521
    1W        W50592  16.739  14.246   1.456  0.0954 -0.1273 -0.0335
    1W        W50593  22.389  18.950   0.045  0.0193  0.2367 -0.2224
    1W        W50594  26.527  23.682   2.503  0.0647  0.1543 -0.0928
    1W        W50595  27.598  29.656   1.846 -0.1232 -0.0602  0.1995
    1W        W50596  14.785   9.219   1.542 -0.1712 -0.2168 -0.1787
    1W        W50597  13.088  23.622   2.129  0.0651 -0.0010  0.2314
    1W        W50598  12.075   2.420   1.195  0.3102  0.1398  0.1762
    1W        W50599  24.448   5.420   2.665  0.1332  0.2094  0.1440
    1W        W50600   2.878   5.981   0.175  0.1347  0.0433 -0.3062
    1W        W50601   8.939   4.831   9.036 -0.1173 -0.2510 -0.0639
    1W        W50602  29.687   1.094   9.247  0.2834  0.0995 -0.0231
    1W        W50603  15.570  18.130   7.321  0.3997  0.1132  0.0861
    1W        W50604  25.369   9.131   7.870 -0.0240  0.0571 -0.0273
    1W        W50605  10.499   0.057   0.385 -0.0660 -0.3531 -0.0540
    1W        W50606  26.365   3.347   8.235  0.2946  0.0465 -0.0055
    1W        W50607   1.179  12.924   8.954 -0.0427 -0.1525  0.3166
    1W        W50608  21.676   3.373   8.487  0.0553 -0.0814  0.0271
    1W        W50609  17.471   5.019   0.031  0.1203  0.1676 -0.0512
    1W        W50610   0.033   4.291   6.039  0.0265 -0.2517 -0.3931
    1W        W50611  10.526  18.761   2.246  0.2037  0.1471 -0.1770
    1W        W50612   8.479   0.858   8.091  0.1758 -0.2082 -0.1285
    1W        W50613   0.669   7.188   7.068 -0.2279 -0.1110  0.0243
    1W        W50614   4.892  27.562   8.559  0.2922  0.2623 -0.1883
    1W        W50615  26.320  10.845   8.967 -0.0220  0.1154  0.1432
    1W        W50616  14.135  12.965   1.090 -0.0727 -0.1409 -0.0189
    1W        W50617  25.853  12.137   6.533  0.1393 -0.2044  0.2688
    1W        W50618  25.772  12.562   7.618  0.0276  0.0376 -0.1430
    1W        W50619   4.385   5.118   3.551 -0.1116  0.1675  0.2389
    1W        W50620  12.833  21.025   0.529  0.3088  0.1917 -0.1178
    1W        W50621  17.931  21.877   1.244 -0.0634  0.2285 -0.0851
    1W        W50622   6.747  18.242   8.951  0.0936  0.1976 -0.0086
    1W        W50623  19.074  27.536   0.522  0.1386 -0.2726  0.0523
    1W        W50624  27.325   8.467   0.859  0.3175  0.1225 -0.0897
    1W        W50625  12.389   7.362   3.044  0.1213 -0.1353 -0.1943
    1W        W50626  21.583   3.661   9.291 -0.3066 -0.0195  0.1171
    1W        W50627  29.007   1.926   7.763 -0.2762 -0.4541 -0.2812
    1W        W50628   2.837  15.404   6.415  0.0178 -0.0076 -0.2318
    1W        W50629  30.020  16.018   7.087  0.2052 -0.0427 -0.0927
    1W        W50630  24.733  18.004   5.539 -0.4076  0.2278  0.0868
    1W        W50631  30.097  19.237   7.889 -0.2322 -0.0823 -0.1859
    1W        W50632   9.403  15.945   8.130 -0.3663  0.0551  0.1015
    1W        W50633   6.260  14.052   8.670 -0.0308  0.0261  0.0448
    1W        W50634  17.580  24.602   7.082 -0.1994 -0.2743 -0.2726
    1W        W50635   1.015  11.913   8.655 -0.0604  0.0221 -0.1767
    1W        W50636  17.378   6.869   2.793  0.0917  0.0156 -0.1740
    1W        W50637  14.535  10.172   7.744 -0.1341 -0.0602  0.1445
    1W        W50638  16.500  26.029   0.949  0.1550  0.2098 -0.3121
    1W        W50639  16.710   7.121   7.304  0.7046  0.0272 -0.0471
    1W        W50640   1.989  17.196   8.377 -0.3152 -0.0197  0.1780
    1W        W50641   9.454   4.448   0.940 -0.0603  0.2828 -0.0780
    1W        W50642  27.682   6.515   1.033  0.0775 -0.2362 -0.1732
    1W        W50643  20.634   8.046   0.249  0.3248  0.0086  0.1874
    1W        W50644  11.066   0.198   9.347  0.1445 -0.1039  0.2292
    1W        W50645  10.459   6.326   7.636  0.2074 -0.0282  0.0655
    1W        W50646   9.210   9.756   9.153  0.0806  0.2869  0.1813
    1W        W50647   8.974   6.365   2.414  0.0132 -0.3208 -0.3321
    1W        W50648  11.377  15.959   7.606  0.1201 -0.2008  0.1082
    1W        W50649  12.306  29.868   2.128  0.0631  0.0681  0.2855
    1W        W50650  10.729  26.595   7.546  0.0147 -0.3088 -0.3252
    1W        W50651  23.693  14.307   9.099 -0.2959  0.2875  0.1687
    1W        W50652  19.073  12.332   7.761 -0.2419  0.2322 -0.0106
    1W        W50653  26.243  10.308   2.153 -0.2506 -0.3759 -0.1313
    1W        W50654   1.748  19.988   8.545  0.1980 -0.2678  0.1672
    1W        W50655  14.971  29.800   2.148  0.0490  0.0589  0.4265
    1W        W50656  12.025  28.464   8.065 -0.0471  0.0526 -0.0606
    1W        W50657  17.110  23.013   2.171 -0.1929  0.1419 -0.0296
    1W        W50658  29.707  16.013   7.552 -0.1393 -0.0216 -0.3758
    1W        W50659  11.480   5.966   8.460  0.0277  0.2894 -0.0558
    1W        W50660  28.378  29.013   7.165  0.1169  0.0668 -0.0351
    1W        W50661   4.059   8.433   0.012  0.0702 -0.1338  0.0815
    1W        W50662   7.814  10.600   0.156  0.1554  0.1480  0.0140
    1W        W50663  10.185   8.108   1.036  0.1441 -0.0492 -0.0833
    1W        W50664  24.325  17.267   8.318  0.3112  0.0196 -0.2010
    1W        W50665   3.848   8.616   6.992 -0.1631  0.4381 -0.2087
    1W        W50666  29.597  14.686   5.908 -0.1252 -0.2024 -0.0270
    1W        W50667  24.436  26.688   7.942 -0.2005  0.0232  0.2659
    1W        W50668  13.178   3.067   3.265  0.0199  0.0928 -0.0830
    1W        W50669  14.655  16.815   7.090 -0.0736  0.1632  0.1684
    1W        W50670  24.753  21.207   8.344  0.0826 -0.3191 -0.0445
    1W        W50671   9.120  17.332   8.808 -0.0254  0.3755 -0.1727
    1W        W50672  21.145  11.781   7.737 -0.1268  0.2999  0.2703
    1W        W50673  16.781  17.112   1.092 -0.1129 -0.0270 -0.1626
    1W        W50674  14.183   6.021   2.136 -0.3635 -0.1468  0.0657
    1W        W50675  29.745  18.545   7.668  0.0568  0.0231  0.3203
    1W        W50676  14.098   8.934   2.463 -0.0655 -0.1200 -0.0992
    1W        W50677  29.727  11.475   7.737 -0.0773 -0.2673  0.0451
    1W        W50678  12.744  27.445   2.480  0.1402 -0.1773 -0.0688
    1W        W50679  17.637   5.666   7.827  0.2060 -0.1806  0.4475
    1W        W50680  26.936  12.667   8.040  0.1849 -0.0258 -0.2242
    1W        W50681  12.466  11.521   0.755 -0.0207 -0.3040  0.0030
    1W        W50682  15.756   3.671   3.334  0.1909 -0.0557  0.1018
    1W        W50683   0.957  13.090   5.927 -0.1725 -0.2323 -0.0232
    1W        W50684  18.625   6.750   0.830 -0.0932  0.1284  0.0814
    1W        W50685  19.324   8.180   0.120  0.1591 -0.2378 -0.1840
    1W        W50686  13.941   7.752   8.563  0.0529 -0.1562 -0.0164
    1W        W50687   5.138  14.519   0.224  0.3615  0.0768 -0.2060
    1W        W50688  29.972   5.674   3.013  0.1139  0.1947  0.0850
    1W        W50689  22.967  29.896   2.816 -0.0409  0.2611 -0.2535
    1W        W50690  13.018  28.989   9.026 -0.3207  0.3900 -0.0800
    1W        W50691  13.829   5.315   7.717 -0.0091 -0.1745  0.1241
    1W        W50692  29.427   8.336   8.676  0.0765 -0.0035  0.3094
    1W        W50693  11.539   4.993   1.803 -0.3985 -0.0979 -0.0409
    1W        W50694  16.044  18.057   8.552 -0.0189 -0.4715 -0.0614
    1W        W50695  27.291   4.736   0.090  0.2342  0.3182 -0.0962
    1W        W50696   3.967   0.490   4.228  0.0038  0.0364  0.2532
    1W        W50697  18.947  26.787   2.240  0.0088  0.0897 -0.2260
    1W        W50698   7.965  16.557   3.087 -0.2484  0.1642 -0.2339
    1W        W50699  15.417  29.085   3.233  0.4485  0.0812 -0.4400
    1W        W50700   3.350   5.312   7.853 -0.4481  0.3255  0.4539
    1W        W50701   8.909  23.003   1.713 -0.0278 -0.0503  0.2198
    1W        W50702  26.908  24.740   7.210  0.1922  0.0921  0.2557
    1W        W50703  28.666  29.310   8.586  0.0725 -0.0432 -0.1703
    1W        W50704  25.294   8.302   7.957 -0.0016 -0.0406  0.1330
    1W        W50705  13.724  23.776   7.273 -0.2939  0.0252  0.3062
    1W        W50706   2.880  20.088   1.924 -0.1776  0.2867  0.0415
    1W        W50707  15.694  21.257   7.403 -0.0431 -0.4298 -0.2448
    1W        W50708  28.360  19.055   0.876  0.0615  0.2761  0.0141
    1W        W50709   3.085   8.655   2.147  0.0616 -0.0674  0.2581
    1W        W50710  16.002  11.737   7.263  0.2670 -0.2317 -0.1487
    1W        W50711  23.290  22.039   9.173 -0.2213 -0.2524  0.3082
    1W        W50712  23.955  10.159   9.404  0.0875 -0.1464  0.0441
    1W        W50713   2.004   7.158   9.229  0.1791  0.2089 -0.1235
    1W        W50714  13.862   2.542   2.454  0.0014 -0.2953  0.3781
    1W        W50715  26.159  11.576   7.049  0.0327 -0.2398  0.0661
    1W        W50716  16.151  19.604   6.866  0.3430  0.1634 -0.0696
    1W        W50717  11.294   8.708   3.471 -0.1790 -0.0713  0.1544
    1W        W50718  18.400  16.404   6.967  0.0377 -0.0321  0.4325
    1W        W50719  18.353   4.817   8.098  0.3450  0.2211 -0.0169
    1W        W50720  13.782  21.065   0.458  0.1107 -0.0089 -0.3523
    1W        W50721  13.345  17.418   2.129 -0.2988  0.1967 -0.1511
    1W        W50722  11.458  10.244   9.158  0.0034 -0.2827 -0.1440
    1W        W50723   0.065  14.094   0.874  0.5241 -0.0164 -0.1478
    1W        W50724  25.302  20.332   7.677  0.0321 -0.1699 -0.1871
    1W        W50725   8.196   0.722   0.113  0.1817  0.1905 -0.2389
    1W        W50726   9.249  13.268   9.034 -0.1988 -0.3031 -0.0566
    1W        W50727  29.650   2.903   1.811  0.0710 -0.0369 -0.2408
    1W        W50728   9.911   5.146   8.118  0.1337  0.1441 -0.1193
    1W        W50729  19.525   7.506   2.622  0.0761 -0.2622 -0.0896
    1W        W50730  14.246  19.258   1.611  0.1089  0.2675  0.2517
    1W        W50731   0.294  23.458   7.509 -0.1988 -0.0105  0.1429
    1W        W50732  15.333   1.271   8.436  0.2323 -0.1601  0.4582
    1W        W50733  22.911   1.239   2.194 -0.1338 -0.2864  0.0911
    1W        W50734  25.483   6.047   8.388  0.2848  0.4661  0.5429
    1W        W50735  18.941   1.572   0.286 -0.1362 -0.1120 -0.1485
    1W        W50736  27.092  18.813   6.729 -0.4944 -0.0730 -0.0856
    1W        W50737   0.078  29.559   8.283 -0.0817  0.0490 -0.1292
    1W        W50738  24.926   0.418   1.868  0.1378 -0.1418  0.1135
    1W        W50739  23.975  16.834   0.650  0.1290 -0.1247 -0.0054
    1W        W50740  17.059  17.166   0.230 -0.0040  0.0206  0.0141
    1W        W50741   5.262  24.124   8.494  0.2591  0.2142  0.0932
    1W        W50742  30.066  15.709   9.123  0.2539 -0.1194  0.0143
    1W        W50743  18.890   4.322   0.903 -0.1940 -0.3048 -0.1540
    1W        W50744   7.011   0.469   1.968  0.1694  0.0240  0.0557
    1W        W50745  28.599  22.724   7.946 -0.1159 -0.1065 -0.2533
    1W        W50746  17.976  27.091   1.061  0.0585 -0.1428 -0.1789
    1W        W50747  13.796  28.135   9.300  0.0129 -0.1954  0.2398
    1W        W50748  16.270  15.112   8.973 -0.0898  0.1441  0.0519
    1W        W50749  12.485   5.717   3.007  0.3108  0.0754  0.0486
    1W        W50750  25.425  12.212   0.204 -0.0597  0.1322  0.0411
    1W        W50751  27.158  16.710   5.503 -0.0291 -0.0707  0.0498
    1W        W50752  17.788  19.768   0.063  0.0952  0.1322 -0.0290
    1W        W50753  28.502   5.478   8.305 -0.1066  0.1692 -0.0894
    1W        W50754   5.273  29.866   1.889 -0.1098  0.0301  0.1064
    1W        W50755   1.286  16.577   6.344  0.2287  0.0895  0.1446
    1W        W50756   7.358  11.936   3.029 -0.2929 -0.3930  0.1390
    1W        W50757  17.692  19.373   9.099  0.0364  0.0527 -0.1690
    1W        W50758  20.952   1.445   7.557  0.0176  0.1164  0.0273
    1W        W50759  11.570   4.982   8.290 -0.1722 -0.2666 -0.2462
    1W        W50760  26.109  24.325   0.163  0.0626  0.2805 -0.3048
    1W        W50761  25.428   0.347   7.951 -0.2494 -0.0669  0.0004
    1W        W50762  15.275   1.955   1.605  0.1067  0.1521 -0.1648
    1W        W50763  20.954   8.165   8.145 -0.0565  0.0933  0.2649
    1W        W50764  29.445  27.110   9.155  0.2912  0.0209 -0.0440
    1W        W50765  19.120  13.255   0.160 -0.3112 -0.1659  0.0323
    1W        W50766   8.290   4.940   3.681 -0.4356 -0.0337  0.0599
    1W        W50767  14.668  23.633   0.362  0.2374  0.2076  0.2257
    1W        W50768  10.711  24.257   6.932  0.0718  0.0796  0.1899
    1W        W50769  14.440  11.035   7.798 -0.0444  0.2372  0.0476
    1W        W50770   8.022   9.805   7.839 -0.0266  0.1550  0.1577
    1W        W50771  23.542  11.720   0.350 -0.0025  0.0844  0.0644
    1W        W50772  28.422  25.347   9.357 -0.0273 -0.1761  0.1212
    1W        W50773  16.358  19.215   1.046  0.1183 -0.1906 -0.0923
    1W        W50774  24.123   8.568   0.831  0.0027  0.3148  0.1560
    1W        W50775  27.217  23.589   6.504  0.1164 -0.0622  0.2019
    1W        W50776  25.885  24.327   2.881 -0.0561 -0.4157  0.0606
    1W        W50777  19.100   1.918   9.343  0.2952 -0.0556  0.1506
    1W        W50778  10.666  24.910   6.797  0.1676 -0.1544 -0.1781
    1W        W50779  24.355  27.450   2.874  0.0784 -0.3471 -0.2715
    1W        W50780  29.024   6.997   7.171 -0.1149 -0.0541 -0.0398
    1W        W50781  21.644  29.135   0.825 -0.1501  0.2370  0.1815
    1W        W50782   0.016  10.567   7.359 -0.1083 -0.1239 -0.1815
    1W        W50783   8.830  11.040   3.118 -0.0849  0.1002 -0.0133
    1W        W50784  21.722  14.911   7.182 -0.1080 -0.2115  0.3775
    1W        W50785  28.326  13.147   1.649  0.3617  0.2675  0.2355
    1W        W50786   5.917   6.665   2.699 -0.2588 -0.4819  0.1676
    1W        W50787  22.810   7.615   9.024  0.0871 -0.0425 -0.1946
    1W        W50788   5.233  28.684   2.796  0.1968 -0.3119 -0.0582
    1W        W50789  29.407  24.186   1.424  0.0757  0.2123 -0.2041
    1W        W50790  12.069  30.099   8.789  0.1722  0.1637  0.0040
    1W        W50791  29.335  21.882   1.275 -0.0551 -0.1535 -0.0423
    1W        W50792  10.893  19.721   0.371 -0.1121 -0.1242 -0.0668
    1W        W50793  27.721  15.796   0.438 -0.2667 -0.2137 -0.2971
    1W        W50794  12.974   6.424   7.371  0.1152  0.2026 -0.2079
    1W        W50795  21.134  25.992   1.833  0.2439 -0.0500 -0.3788
    1W        W50796  15.037   2.866   9.309 -0.0693  0.0756  0.0443
    1W        W50797  29.198  17.180   7.492 -0.2464 -0.1635 -0.1238
    1W        W50798   3.911  16.318   0.683 -0.0662 -0.2607  0.0918
    1W        W50799   9.954  24.932   1.639 -0.1499  0.0148 -0.1858
    1W        W50800  29.938   1.098   8.835 -0.2395 -0.0449  0.3190
    1W        W50801  16.593  26.551   8.503  0.1978 -0.3283 -0.0009
    1W        W50802   6.688  24.551   6.435  0.2035 -0.0418  0.4451
    1W        W50803  28.611  28.077   0.595  0.2718 -0.2312  0.2378
    1W        W50804   7.696   4.507   2.819  0.0058  0.0999 -0.3110
    1W        W50805   3.863  11.950   9.338  0.0156  0.1373  0.0431
    1W        W50806   2.828  28.938   7.990 -0.3871 -0.1355 -0.2133
    1W        W50807  19.576  25.104   2.262  0.0023  0.1942 -0.0078
    1W        W50808  23.079  18.623   8.143  0.0957  0.1158 -0.0266
    1W        W50809   2.767   9.106   8.667  0.0873 -0.1316 -0.0004
    1W        W50810  26.828  24.759   2.753 -0.0023  0.1143 -0.0679
    1W        W50811  15.482  25.267   7.976 -0.0466 -0.1179 -0.0734
    1W        W50812  25.424   2.559   7.338 -0.1286 -0.0283 -0.0356
    1W        W50813  25.437  22.128   5.961 -0.2732  0.2744 -0.1980
    1W        W50814   3.959  19.018   6.125 -0.1108 -0.0607 -0.0953
    1W        W50815  21.482  21.395   0.317  0.0266  0.1213 -0.0224
    1W        W50816  25.078  11.952   7.549 -0.2432 -0.0434  0.0479
    1W        W50817  14.704   8.040   1.689 -0.1361 -0.0424 -0.4579
    1W        W50818  28.528   5.162   7.882  0.1069  0.3131  0.2075
    1W        W50819  25.725   0.077   0.402 -0.0424  0.1660 -0.2540
    1W        W50820  10.348  11.628   9.186 -0.1274  0.0823 -0.1610
    1W        W50821  20.013  20.916   6.878 -0.1956 -0.3720  0.1574
    1W        W50822   5.260  12.978   2.440 -0.1395 -0.0120  0.1586
    1W        W50823  26.961   0.486   0.950 -0.3910 -0.0948 -0.0911
    1W        W50824  14.467  16.667   0.263 -0.0007 -0.1241  0.1791
    1W        W50825  25.697  29.203   6.936  0.1975 -0.0650  0.2346
    1W        W50826   5.099  17.493   9.050  0.0808  0.1949 -0.0015
    1W        W50827  28.842   4.828   3.034 -0.1876  0.5404  0.2287
    1W        W50828  24.304  26.450   1.841 -0.0785 -0.0939 -0.0133
    1W        W50829  22.097  12.170   6.765 -0.2072 -0.1834  0.0838
    1W        W50830   4.278  22.003   5.976 -0.0510  0.1115 -0.0784
    1W        W50831   2.656  21.635   0.635  0.0618  0.3181  0.0739
    1W        W50832  15.725   3.898   1.782  0.2810  0.2126 -0.1664
    1W        W50833  26.422   2.307   6.208 -0.1095  0.0200 -0.0879
    1W        W50834   8.195  12.507   1.601  0.1503 -0.0280  0.2171
    1W        W50835   6.180   6.853   8.905  0.0983 -0.1571 -0.3050
    1W        W50836  19.508  25.535   9.108 -0.3809 -0.1805 -0.0376
    1W        W50837  11.483   4.591   0.164  0.2588 -0.1559  0.0171
    1W        W50838  25.447  10.527   8.990 -0.1076  0.5504 -0.1196
    1W        W50839  17.672   3.238   0.970 -0.1281 -0.0078 -0.1917
    1W        W50840   5.143   1.145   2.849 -0.0125 -0.0028 -0.1186
    1W        W50841  18.684   2.864   1.342 -0.2158  0.0477  0.0967
    1W        W50842  25.995   0.747   8.972 -0.2463  0.1947 -0.3070
    1W        W50843  28.293  16.920   7.227  0.2512 -0.3212  0.0719
    1W        W50844  20.363  21.884   0.882 -0.1380  0.0368 -0.0473
    1W        W50845  12.245  14.521   2.151  0.2012 -0.1723 -0.2601
    1W        W50846  24.668   1.763   3.335  0.3578  0.2362 -0.1454
    1W        W50847  16.749   0.037   6.996  0.1057  0.1130 -0.2612
    1W        W50848  26.768   3.116   2.015  0.1794 -0.1211  0.0988
    1W        W50849   2.726  23.958   8.644  0.2807  0.2825  0.3167
    1W        W50850  12.398   5.080   2.068 -0.1972  0.0445  0.1057
    1W        W50851  20.869   4.871   7.065 -0.5003  0.1747 -0.3693
    1W        W50852  12.548   9.400   1.782  0.2612  0.0708  0.1891
    1W        W50853  26.561   5.916   7.073 -0.1463  0.3742  0.0236
    1W        W50854   9.621  14.733   0.267  0.2276 -0.1009 -0.0542
    1W        W50855  11.730   7.037   9.193 -0.3211  0.0423 -0.1858
    1W        W50856  26.513  16.572   7.876 -0.2752 -0.0353 -0.0082
    1W        W50857  18.663   7.296   8.183  0.0826 -0.0254 -0.0091
    1W        W50858   7.887  21.755   6.589 -0.1802 -0.0610  0.0154
    1W        W50859  20.788   9.620   6.983  0.0833 -0.0103 -0.0864
    1W        W50860  14.072   2.937   8.136  0.1291 -0.0894  0.0141
    1W        W50861   6.321  29.300   8.006  0.1092 -0.1978 -0.2548
    1W        W50862  26.574  27.428   7.908 -0.0323  0.2065  0.0305
    1W        W50863  22.451  10.000   7.194  0.1483 -0.2089  0.1484
    1W        W50864  23.113   5.612   2.928 -0.0230  0.2568  0.2740
    1W        W50865   5.554   2.141   1.827  0.0378  0.1950 -0.1266
    1W        W50866   7.283   9.663   8.492 -0.1202  0.3654 -0.0974
    1W        W50867  24.661  10.843   6.464 -0.0687  0.2900  0.0167
    1W        W50868  23.247  16.360   0.290  0.0733  0.2141 -0.1613
    1W        W50869  20.468  11.603   7.330 -0.2623  0.0313 -0.4211
    1W        W50870  12.006  23.294   2.264  0.0027  0.0969  0.1840
    1W        W50871  17.882   5.188   0.436  0.1812 -0.1480 -0.2410
    1W        W50872  15.731   2.711   7.304  0.1238 -0.0942 -0.1970
    1W        W50873   4.035  11.672   7.783  0.0537  0.0412 -0.0026
    1W        W50874  26.908  19.114   5.375  0.1749  0.0578 -0.0761
    1W        W50875  24.440  25.605   1.567  0.3062 -0.1496  0.0213
    1W        W50876  25.278  23.794   0.629 -0.1081  0.3078 -0.0655
    1W        W50877  17.803  24.943   2.059 -0.0484 -0.1561  0.1927
    1W        W50878   0.381  15.875   9.052  0.0250 -0.1838 -0.2024
    1W        W50879  29.299  16.012   0.948  0.1004 -0.1544 -0.1397
    1W        W50880   7.090  17.123   1.981  0.2200 -0.1790  0.0471
    1W        W50881  24.329  18.563   9.151  0.0752  0.1985  0.2696
    1W        W50882   9.458   4.297   0.090  0.1164  0.0385 -0.1790
    1W        W50883   4.921  18.154   6.160  0.1192  0.0904 -0.1201
    1W        W50884  16.154  10.825   1.570  0.1565 -0.0888 -0.0809
    1W        W50885  14.919  20.698   1.669  0.0051  0.0413 -0.1363
    1W        W50886  21.970  12.621   0.471 -0.1039 -0.1108  0.1592
    1W        W50887   3.215   2.629   6.532 -0.2287  0.1848  0.2951
    1W        W50888  28.069  22.218   7.169 -0.0210  0.0462  0.2194
    1W        W50889  25.362   2.482   7.964 -0.0489 -0.2541  0.2050
    1W        W50890   9.611   0.453   6.919  0.3076  0.1420 -0.1318
    1W        W50891   4.151  25.900   0.096 -0.1046 -0.1252  0.0477
    1W        W50892   7.408  14.711   9.350 -0.2332  0.2302  0.1478
    1W        W50893   6.166   2.706   2.054  0.0360  0.1139 -0.0863
    1W        W50894  21.735  28.644   2.370 -0.0659 -0.3961 -0.4198
    1W        W50895   6.447  21.582   6.185 -0.0353 -0.1683  0.1378
    1W        W50896   9.280  16.853   1.774 -0.0575 -0.0369  0.0240
    1W        W50897   5.430  24.666   0.793  0.2083  0.1166 -0.1073
    1W        W50898  15.523  24.283   1.162  0.1841  0.0461  0.1451
    1W        W50899   8.244  24.307   7.513  0.0367  0.0969  0.1818
    1W        W50900  12.671  28.745   2.275 -0.3167 -0.0661 -0.0373
    1W        W50901   9.367  14.894   7.009 -0.0963  0.2776 -0.1687
    1W        W50902  28.448  21.339   6.878  0.0255  0.2644  0.1392
    1W        W50903   2.760  18.586   5.617  0.0581  0.1781  0.0539
    1W        W50904  27.726   5.691   8.662 -0.1220  0.3307 -0.0985
    1W        W50905  12.076   0.776   0.211 -0.0656 -0.3941  0.0461
    1W        W50906  10.705  19.166   0.480 -0.1874  0.1867  0.0683
    1W        W50907   3.621  25.239   0.195  0.1699 -0.2022  0.0777
    1W        W50908  29.507  19.832   6.225  0.3179  0.1828 -0.4312
    1W        W50909  24.734   4.068   1.491  0.2591  0.0154 -0.1581
    1W        W50910  11.405   0.126   8.907  0.2671  0.0808  0.0920
    1W        W50911  26.811  23.210   0.913  0.0378  0.2771 -0.1211
    1W        W50912  11.300  22.458   7.369 -0.2113 -0.0194  0.4110
    1W        W50913  25.759  25.798   2.057  0.1094  0.1106  0.1779
    1W        W50914   4.447   4.648   8.096 -0.0864 -0.0280  0.0775
    1W        W50915  24.859  12.948   1.689  0.3099 -0.0998  0.1930
    1W        W50916   5.580  24.944   8.162  0.2057  0.0137  0.1429
    1W        W50917  29.111  19.777   7.168 -0.0591 -0.3413  0.1170
    1W        W50918   3.957   8.880   8.073  0.1548 -0.0610 -0.1371
    1W        W50919  29.008   1.257   8.529 -0.1205  0.0171  0.1946
    1W        W50920  26.282  20.040   7.696  0.1270 -0.2026  0.0882
    1W        W50921  11.960   7.161   7.174 -0.0049  0.0066  0.1735
    1W        W50922  18.131  29.379   7.898 -0.3378  0.2837 -0.0748
    1W        W50923   9.575   6.353   2.149  0.3261 -0.0744 -0.2092
    1W        W50924  25.890   1.285   6.514 -0.1328 -0.3098  0.0075
    1W        W50925  26.853  22.490   9.153 -0.4199  0.0499  0.2483
    1W        W50926  24.725   7.960   6.013 -0.0399 -0.2017  0.2188
    1W        W50927  13.195   8.782   0.199 -0.0611 -0.1458 -0.0774
    1W        W50928  25.648  18.376   5.363 -0.1055  0.0169 -0.1644
    1W        W50929  10.439   5.048   8.026  0.0473  0.1768  0.0738
    1W        W50930   4.049   6.596   7.749 -0.3313 -0.1153  0.1165
    1W        W50931   3.249  16.697   5.869 -0.1078 -0.0439 -0.1399
    1W        W50932  29.435  29.625   1.594  0.1124  0.0202  0.0583
    1W        W50933   7.195  14.292   9.101 -0.0149 -0.3324  0.0070
    1W        W50934   5.062  29.496   3.162  0.0517  0.1825  0.0334
    1W        W50935  17.735   4.168   1.835 -0.0548  0.0783 -0.1260
    1W        W50936  10.579  17.988   7.278 -0.3813 -0.1472 -0.1178
    1W        W50937  21.682  18.294   9.215 -0.2229 -0.1642 -0.0792
    1W        W50938  23.895  25.731   0.745  0.0680 -0.1012  0.1087
    1W        W50939  25.243  14.350   8.948  0.0537 -0.0724 -0.2517
    1W        W50940  25.197   9.211   9.366 -0.3554 -0.2126  0.2067
    1W        W50941  12.864   8.138   7.879  0.1647 -0.0923 -0.0467
    1W        W50942   4.490  30.149   0.448 -0.1830 -0.1397  0.1001
    1W        W50943  22.564  25.539   9.205 -0.0946  0.2115 -0.3450
    1W        W50944   3.479  11.713   7.788  0.2021  0.0095  0.0739
    1W        W50945   0.224   5.160   2.155 -0.2399 -0.0711 -0.0645
    1W        W50946   8.333  10.077   2.964 -0.0412 -0.0081 -0.1058
    1W        W50947   7.968  14.173   8.011 -0.0080 -0.4900 -0.1230
    1W        W50948   4.352  17.240   6.302 -0.1756  0.1850 -0.2325
    1W        W50949  21.338   7.030   7.435 -0.0506 -0.0323  0.4024
    1W        W50950  15.198   5.644   1.513 -0.0173  0.0768  0.0553
    1W        W50951  27.560  13.077   0.322  0.0857  0.0868 -0.5378
    1W        W50952   5.394  26.299   1.726  0.2571  0.1630 -0.1319
    1W        W50953  18.125   6.346   0.581  0.1525  0.2639  0.1771
    1W        W50954  17.437  30.005   8.467  0.1734  0.1790 -0.1321
    1W        W50955  10.525  15.768   7.276 -0.1807  0.3483 -0.6451
    1W        W50956  19.040   9.227   1.635  0.0505 -0.0511  0.1210
    1W        W50957  12.031  11.293   8.842 -0.1939  0.0495  0.0462
    1W        W50958  22.977  27.454   0.878  0.1589 -0.0040  0.1183
    1W        W50959  25.364  16.420   1.068  0.0597 -0.1690 -0.2469
    1W        W50960  29.325   6.028   1.795  0.0652 -0.1443 -0.0885
    1W        W50961   4.722   0.896   3.585  0.0018  0.1582  0.0004
    1W        W50962   0.262  26.267   9.077 -0.0276  0.0390 -0.1639
    1W        W50963  11.995  13.363   8.223  0.2847 -0.5356  0.1024
    1W        W50964  10.595   9.591   1.632  0.2874  0.0062  0.2031
    1W        W50965  17.256  27.028   7.449  0.1910  0.0648  0.1228
    1W        W50966  21.288  24.506   3.361 -0.1309 -0.0045  0.0742
    1W        W50967  10.384   7.941   0.594 -0.0198 -0.5046  0.0590
    1W        W50968  16.639   9.869   2.928 -0.0099  0.2830 -0.4269
    1W        W50969  26.658  21.143   1.075 -0.1979 -0.1037 -0.2227
    1W        W50970  12.388   3.823   0.331 -0.0763  0.1237 -0.3045
    1W        W50971  20.625  27.653   1.538 -0.1437  0.0515 -0.1149
    1W        W50972   9.052   1.546   7.587  0.0406 -0.0214  0.1185
    1W        W50973  20.648  26.052   2.643 -0.3876 -0.0057 -0.0947
    1W        W50974  15.119  10.458   2.575 -0.6719  0.1977  0.2728
    1W        W50975  16.962  13.319   8.785  0.4119 -0.1094 -0.2166
    1W        W50976  17.601  14.349   0.102  0.0113  0.0425  0.0800
    1W        W50977  30.107   9.822   1.978  0.2800 -0.0992 -0.0394
    1W        W50978  22.003   1.028   2.256  0.0005  0.1464  0.1292
    1W        W50979   0.464   9.702   6.177 -0.2286 -0.1512  0.1082
    1W        W50980   2.955   0.327   8.326  0.2192 -0.1033 -0.0208
    1W        W50981  27.617  23.970   6.813  0.2085  0.2463 -0.2261
    1W        W50982  11.230   4.930   2.578 -0.0803  0.0862  0.3453
    1W        W50983  28.625  17.700   0.932  0.0565  0.1135  0.3414
    1W        W50984  15.260  29.766   0.836  0.2830  0.0560 -0.1422
    1W        W50985   1.463  21.280   8.567  0.1136  0.1917 -0.0556
    1W        W50986   4.131  28.476   8.828  0.2825  0.1074 -0.0482
    1W        W50987  23.147  19.823   7.073  0.0907  0.1005  0.0003
    1W        W50988   0.800   3.300   6.581 -0.2507 -0.2828 -0.0224
    1W        W50989   4.447  17.280   7.757 -0.0212 -0.0571 -0.0615
    1W        W50990  24.851   3.399   8.253  0.1610 -0.0294 -0.1812
    1W        W50991   5.947  22.203   8.835  0.1280  0.2275 -0.0411
    1W        W50992  13.052  26.511   2.431  0.2108 -0.1809 -0.0558
    1W        W50993   5.189  13.804   7.048 -0.0058  0.1917 -0.1238
    1W        W50994  28.808  19.258   0.663  0.0958  0.1241 -0.0767
    1W        W50995   0.372  18.419   7.450 -0.2377 -0.2251  0.2321
    1W        W50996  11.918  28.654   7.528 -0.2163 -0.0786  0.5605
    1W        W50997  27.935  23.696   8.020  0.0053  0.1207  0.0744
    1W        W50998  27.462  13.719   0.839  0.2060  0.2475  0.2040
    1W        W50999  24.813  14.732   8.994 -0.2806  0.2538  0.1383
    1W        W51000  11.712  19.307   0.275 -0.1369 -0.0287 -0.0728
    1W        W51001  11.545  23.423   0.569  0.0209 -0.0696 -0.0596
    1W        W51002   8.155  28.499   8.416  0.1962  0.3585  0.0348
    1W        W51003  10.933  24.768   0.802  0.0977  0.1106  0.2688
    1W        W51004   6.025  19.299   2.426 -0.0365  0.1489 -0.0293
    1W        W51005  24.921   5.560   2.423  0.0708  0.1251  0.0479
    1W        W51006   0.780  20.148   1.472 -0.1670  0.0014 -0.1238
    1W        W51007  13.768  24.265   7.021 -0.1257  0.0711  0.1425
    1W        W51008  11.813   3.917   2.013 -0.1340 -0.1605 -0.1751
    1W        W51009  12.769   0.188   1.764  0.1108 -0.2020 -0.1815
    1W        W51010  13.554  18.953   7.626  0.1145 -0.0220 -0.3085
    1W        W51011   5.375  20.122   8.923  0.3173  0.2183  0.2397
    1W        W51012  17.539   1.513   0.176 -0.2004  0.0365 -0.2161
    1W        W51013   7.119   6.017   8.758  0.0771 -0.0795 -0.1718
    1W        W51014  26.779  16.017   6.362 -0.1416  0.0270  0.3515
    1W        W51015  17.898   0.499   8.732  0.0763 -0.1474  0.0741
    1W        W51016  20.053  18.291   9.311 -0.0402  0.2464 -0.2903
    1W        W51017  29.863   2.570   0.536 -0.1102  0.1447 -0.0819
    1W        W51018  24.471   8.913   6.308  0.0007 -0.3519 -0.0836
    1W        W51019  20.405   3.262   9.352 -0.0737 -0.0397  0.1699
    1W        W51020  17.385  13.640   8.938 -0.0091  0.3079 -0.3117
    1W        W51021  17.576  17.942   0.294  0.0218  0.0501 -0.0283
    1W        W51022  25.257   5.292   8.328 -0.0478 -0.1975  0.0694
    1W        W51023   8.538   1.013   0.501  0.0078  0.2186  0.0972
    1W        W51024   6.240  14.395   7.336  0.0768 -0.1555  0.1722
    1W        W51025   3.440  20.504   6.044 -0.0605 -0.0094  0.3802
    1W        W51026   1.136  14.953   1.094  0.3041 -0.1699  0.1242
    1W        W51027  24.279   6.712   1.037 -0.0768  0.0994  0.0483
    1W        W51028  25.788   6.505   8.104 -0.0771  0.1259  0.0672
    1W        W51029  14.616   8.807   9.285 -0.1395 -0.0108  0.0872
    1W        W51030  27.616   5.471   7.909  0.2618  0.2546 -0.1287
    1W        W51031  24.391  29.084   8.084 -0.0529 -0.0798  0.2547
    1W        W51032  15.703  19.021   7.588  0.1813  0.4466  0.1581
    1W        W51033  21.397  13.940   6.686  0.3212  0.0233 -0.2036
    1W        W51034  22.385  23.014   1.960  0.2528  0.3212 -0.1440
    1W        W51035  24.002  20.818   7.277  0.1790  0.3022 -0.0137
    1W        W51036   8.208  21.796   8.308 -0.3565  0.1459  0.0677
    1W        W51037  20.261  28.047   3.622  0.2195  0.0455 -0.1461
    1W        W51038  11.553  19.277   0.919 -0.0940 -0.3308 -0.2746
    1W        W51039   2.235   7.847   1.072  0.1994  0.0367  0.2604
    1W        W51040   4.838  15.068   7.020  0.2014  0.2506  0.0400
    1W        W51041  16.740  25.796   2.984  0.1634  0.4542  0.0985
    1W        W51042  24.533  27.660   0.568 -0.0952  0.2428 -0.2615
    1W        W51043   6.025  24.607   5.644 -0.0802 -0.1476  0.2289
    1W        W51044   9.282   5.976   3.452 -0.1415  0.1280  0.0283
    1W        W51045  29.172   5.522   1.531 -0.0279 -0.2161 -0.1144
    1W        W51046  14.904  14.430   6.590  0.2569  0.1318  0.0953
    1W        W51047   4.891  11.270   8.441  0.1104 -0.5112  0.0724
    1W        W51048  18.669   8.060   6.728  0.1495  0.4524 -0.0655
    1W        W51049  11.675  14.000   0.877 -0.0043 -0.4511  0.1891
    1W        W51050  11.910   5.719   3.320 -0.1383  0.2173  0.1104
    1W        W51051  24.958  23.731   9.365  0.1882 -0.2477  0.0535
    1W        W51052   0.815  28.187   0.030  0.0525  0.2446 -0.1971
    1W        W51053   2.463  14.483   6.416 -0.0954  0.1590  0.1205
    1W        W51054   7.881   4.258   7.757 -0.1928  0.0265  0.0359
    1W        W51055   6.196  18.416   0.404 -0.0442 -0.1132 -0.0296
    1W        W51056   5.611   2.760   0.707  0.1670  0.0798  0.2047
    1W        W51057  28.057  20.153   6.952  0.0022 -0.1387 -0.5422
    1W        W51058  27.024   9.212   0.138 -0.1899  0.3236  0.0885
    1W        W51059   4.079   5.684   2.807 -0.1972 -0.4954  0.2901
    1W        W51060  16.055  15.758   7.333 -0.1453 -0.2142  0.0127
    1W        W51061  28.247  16.660   0.855  0.3523  0.0640  0.5526
    1W        W51062  21.338   1.456   0.741 -0.2331 -0.4002  0.2346
    1W        W51063   8.368  24.191   6.455 -0.2888 -0.3310  0.1687
    1W        W51064   1.882   8.993   8.539  0.2464 -0.1070  0.1429
    1W        W51065  13.413   8.014   1.811 -0.0635  0.2045  0.1012
    1W        W51066  14.332  15.451   8.101  0.2105 -0.0639  0.2388
    1W        W51067  17.104   7.394   8.653  0.0129 -0.1625  0.1475
    1W        W51068  14.257  24.623   7.690 -0.0291  0.3731  0.1849
    1W        W51069  26.665  27.916   0.259 -0.0909 -0.3509 -0.2148
    1W        W51070  29.350   3.606   9.290 -0.1183  0.0748 -0.1543
    1W        W51071  28.729  11.560   9.263 -0.0664 -0.1345 -0.0292
    1W        W51072  23.655  21.669   7.180 -0.2197 -0.2347  0.3427
    1W        W51073   6.223  25.393   7.387 -0.3749 -0.1771 -0.0295
    1W        W51074   2.652  26.795   6.504 -0.0767  0.2476  0.1994
    1W        W51075   2.481  21.813   6.265  0.0045  0.3880  0.0219
    1W        W51076   1.985   3.318   0.084  0.3665  0.3542 -0.1273
    1W        W51077   1.112  15.774   1.523 -0.1285  0.2189 -0.1333
    1W        W51078  13.642  13.567   8.280 -0.0553 -0.2354  0.2178
    1W        W51079  21.904  18.015   8.192 -0.1849  0.0237 -0.1565
    1W        W51080  17.875  27.855   9.355 -0.3280  0.1265  0.2117
    1W        W51081   2.001  16.307   8.509  0.1565  0.0791 -0.1071
    1W        W51082  22.358   1.221   6.682  0.2686  0.1565  0.0301
    1W        W51083  17.522  23.658   9.003 -0.0357  0.1996  0.2659
    1W        W51084  19.598  11.862   1.966 -0.0060 -0.3375  0.3968
    1W        W51085   8.547  25.605   7.499 -0.1113 -0.0465  0.2717
    1W        W51086  13.348  20.449   1.153  0.3738  0.0344  0.2244
    1W        W51087  27.252  26.560   9.188 -0.1923  0.0459  0.1625
    1W        W51088  23.836  23.925   0.086  0.3470  0.1940  0.0301
    1W        W51089  25.777  15.706   8.423 -0.1936 -0.0360  0.2808
    1W        W51090  21.282  17.346   8.977  0.0216  0.0244 -0.0694
    1W        W51091  13.304  24.558   9.051  0.0487 -0.0090  0.0255
    1W        W51092   7.803  10.951   8.668  0.3014 -0.1645 -0.2280
    1W        W51093  18.807   8.979   6.676 -0.0899  0.1176 -0.0240
    1W        W51094  15.978  12.034   2.428 -0.2692 -0.0024 -0.2641
    1W        W51095  10.177   4.126   2.199 -0.5297  0.3329  0.1699
    1W        W51096  14.582   8.476   7.899 -0.2998  0.1451 -0.3590
    1W        W51097   5.532   1.678   7.376 -0.0156  0.2910 -0.2523
    1W        W51098  10.132   3.175   8.663 -0.2102 -0.3302 -0.0429
    1W        W51099  15.166  21.274   7.329  0.1096  0.1450 -0.0211
    1W        W51100  11.692  10.553   3.653  0.1207 -0.1264 -0.2225
    1W        W51101  25.541   6.529   6.812 -0.1050 -0.0323  0.1530
    1W        W51102  29.290  13.974   0.259  0.0283 -0.1529 -0.1321
    1W        W51103   3.614  27.537   2.438 -0.2595  0.2761  0.4777
    1W        W51104   1.671  10.314   2.284 -0.1098 -0.0671 -0.0641
    1W        W51105  11.726   2.506   0.694 -0.1033 -0.1433 -0.0517
    1W        W51106  22.043   3.349   2.490 -0.1134 -0.0741  0.0428
    1W        W51107   2.209  12.810   2.087  0.1707 -0.0789 -0.1500
    1W        W51108   3.711  10.485   6.988  0.3248  0.1130 -0.0186
    1W        W51109  17.730  18.935   1.207 -0.0400 -0.1350 -0.3564
    1W        W51110  25.536  11.772   8.684  0.2228 -0.1731 -0.0147
    1W        W51111  10.435   0.930   3.172  0.0933  0.0231 -0.1808
    1W        W51112  10.483  28.385   2.263 -0.4312  0.0859 -0.0295
    1W        W51113  18.827  25.791   0.535 -0.1173 -0.2052  0.1270
    1W        W51114   1.580  10.369   1.331 -0.1259  0.1311  0.2263
    1W        W51115   2.293  27.699   1.671  0.1749 -0.2079 -0.0939
    1W        W51116   2.367  27.202   7.585 -0.3202 -0.1280  0.0868
    1W        W51117  27.883   9.781   7.618 -0.0151  0.0606  0.3015
    1W        W51118   2.210  24.935   9.048  0.0565  0.3288  0.4393
    1W        W51119  28.886  14.375   6.064  0.0838 -0.4436 -0.0870
    1W        W51120   7.906   4.414   8.832  0.0468  0.0863  0.1260
    1W        W51121  16.119  26.282   8.942 -0.0166  0.1115 -0.1120
    1W        W51122  10.965  24.948   2.384 -0.2272 -0.2998 -0.0599
    1W        W51123   9.493  28.586   7.966  0.0129 -0.1629  0.1552
    1W        W51124   6.527  18.122   7.579  0.0320  0.1335  0.2194
    1W        W51125  28.053  16.129   7.819 -0.1607 -0.0342  0.0856
    1W        W51126  21.774  27.341   0.107 -0.1614 -0.1734  0.1269
    1W        W51127  11.965  24.480   2.370  0.0924 -0.1835  0.1092
    1W        W51128   4.260  21.483   1.842 -0.1630 -0.0827  0.0368
    1W        W51129  29.674   8.966   0.530 -0.0902 -0.1508  0.0461
    1W        W51130  17.731   6.119   8.145  0.1382  0.0855 -0.1785
    1W        W51131   1.758   3.257   1.172  0.0963 -0.0538  0.0352
    1W        W51132  27.886   8.433   6.241  0.1987 -0.0408  0.1392
    1W        W51133   6.709  18.256   6.838  0.2427  0.0087  0.0444
    1W        W51134  29.792   2.318   1.635 -0.0994  0.0133 -0.0576
    1W        W51135  19.608  28.873   2.618 -0.2142  0.0962  0.0271
    1W        W51136  24.374   6.124   7.472 -0.0467 -0.2638 -0.1371
    1W        W51137  15.364   7.970   7.629  0.2363  0.2939  0.0841
    1W        W51138   1.424   2.032   1.192  0.4635  0.2048  0.1097
    1W        W51139   9.010   4.377   9.281 -0.0724  0.1365 -0.2022
    1W        W51140  25.035  18.490   0.814 -0.1463 -0.0105 -0.1655
    1W        W51141  20.763  26.044   7.024 -0.1662 -0.2004  0.1990
    1W        W51142  17.854  22.378   1.433 -0.0666 -0.0115 -0.0782
    1W        W51143  24.402   2.997   8.436 -0.1613 -0.1935  0.0454
    1W        W51144  26.359  21.433   7.055  0.0548 -0.3866 -0.1100
    1W        W51145   9.202   7.985   1.373 -0.4556  0.2349  0.3174
    1W        W51146   7.932  24.012   1.538  0.6856  0.2605 -0.0744
    1W        W51147   0.748  19.523   2.264  0.0539  0.0365 -0.2182
    1W        W51148  27.902   0.857   1.646 -0.4028 -0.1036  0.0011
    1W        W51149   1.775  12.197   8.328  0.0261  0.2991  0.2822
    1W        W51150   6.656  18.299   1.197  0.2319 -0.1139  0.0101
    1W        W51151  26.630  28.813   7.374 -0.0944  0.0060 -0.0859
    1W        W51152   7.503  22.114   0.162 -0.4226 -0.0873  0.1059
    1W        W51153  20.516  28.748   2.947  0.0572 -0.1973 -0.4730
    1W        W51154   1.709   4.764   1.565  0.1164 -0.1531  0.0608
    1W        W51155  16.985  29.402   6.790  0.1716  0.1728 -0.0356
    1W        W51156  21.477   3.377   6.221  0.2583 -0.1677  0.0328
    1W        W51157  18.638  13.849   1.893  0.1869  0.2055 -0.1263
    1W        W51158   0.448   5.206   8.500  0.0070  0.0956 -0.1873
    1W        W51159   4.096  27.469   2.341 -0.2466 -0.3693 -0.0279
    1W        W51160  28.524   7.079   0.674  0.1713 -0.0114  0.0584
    1W        W51161  28.882  25.694   9.387  0.0014 -0.2210 -0.0356
    1W        W51162  15.294  26.027   7.075 -0.1333  0.3833  0.0990
    1W        W51163  18.977   8.418   2.329  0.0038 -0.0004  0.0999
    1W        W51164  19.676  18.042   1.736  0.0959 -0.2053  0.1068
    1W        W51165  12.030   8.604   2.346  0.4479 -0.1275 -0.0583
    1W        W51166  17.344  25.642   0.611  0.0716  0.2137  0.3191
    1W        W51167  19.388  27.298   0.227 -0.0032 -0.1356  0.0292
    1W        W51168  25.539  16.320   9.232 -0.0754  0.2504  0.1574
    1W        W51169  16.065  18.570   8.304 -0.2253 -0.1747  0.0789
    1W        W51170  19.401  14.743   1.330 -0.0899 -0.3039  0.1756
    1W        W51171   5.041  10.577   2.059  0.1032  0.1637 -0.2829
    1W        W51172  19.033   0.526   2.723  0.1431  0.0015  0.2919
    1W        W51173  10.905   5.576   7.790  0.2292  0.0061  0.1019
    1W        W51174  24.467  10.160   7.665  0.1584 -0.0678 -0.0870
    1W        W51175  17.575   7.302   3.110  0.0060 -0.0808  0.1670
    1W        W51176  24.233  20.261   0.731 -0.1007 -0.0415 -0.1379
    1W        W51177  14.648   6.541   9.049 -0.0976 -0.0148 -0.2963
    1W        W51178   7.988  12.501   8.435 -0.0458 -0.2343  0.0734
    1W        W51179  21.885  23.176   2.044 -0.0899 -0.2402  0.3394
    1W        W51180  14.839   2.237   3.003  0.3136 -0.6684 -0.0253
    1W        W51181  19.872  16.326   0.925  0.3283  0.1975  0.1228
    1W        W51182  26.032  14.678   7.052  0.1051  0.0260  0.2050
    1W        W51183   6.264  15.601   1.187  0.1038 -0.1098  0.0081
    1W        W51184  13.121   0.018   7.719 -0.1456  0.0734 -0.1035
    1W        W51185   8.954  27.557   6.112  0.4762  0.0632  0.1517
    1W        W51186  28.745  18.288   7.658 -0.0081 -0.1848 -0.2851
    1W        W51187   1.711   9.346   8.859 -0.4168 -0.1063  0.2820
    1W        W51188  24.443  11.325   6.415  0.0575 -0.1539 -0.0211
    1W        W51189  19.012  21.842   7.905 -0.1018 -0.0297 -0.0398
    1W        W51190  19.238  27.376   2.867  0.1449 -0.1767  0.0503
    1W        W51191   2.855  12.117   0.624  0.2004 -0.1699 -0.3083
    1W        W51192   8.172  13.724   2.036 -0.0837  0.2004  0.3126
    1W        W51193  27.430   3.439   7.703  0.2453 -0.2027  0.0774
    1W        W51194  24.151   8.074   7.845 -0.0606 -0.2184 -0.0977
    1W        W51195  27.691  20.243   1.586  0.0152  0.0985  0.2548
    1W        W51196  24.496   0.692   0.584 -0.0206  0.1242 -0.0749
    1W        W51197  14.989  29.328   0.875 -0.0790  0.0046 -0.2068
    1W        W51198  13.396   5.544   7.503  0.2099 -0.0027 -0.0080
    1W        W51199  22.904  20.447   0.935  0.1676 -0.0348  0.0443
    1W        W51200  24.144   9.718   6.346 -0.0518  0.0126  0.0577
    1W        W51201  22.325  13.180   6.995 -0.5913 -0.2025  0.0566
    1W        W51202  14.530   2.996   2.827  0.0292 -0.2039  0.1158
    1W        W51203  13.464   0.060   8.186 -0.3674  0.0845 -0.2122
    1W        W51204  11.894  20.202   9.356 -0.1710 -0.0250 -0.1349
    1W        W51205  29.312  23.251   8.666 -0.0772  0.0955 -0.0866
    1W        W51206  24.921  28.007   0.783  0.0485  0.1469 -0.1487
    1W        W51207  27.636  16.776   6.620  0.0322  0.1885  0.1357
    1W        W51208   7.835   4.056   8.354 -0.1215 -0.0045  0.0751
    1W        W51209  26.321   5.390   7.170  0.1556 -0.1088 -0.2203
    1W        W51210   9.692   4.028   2.374 -0.1431 -0.0198 -0.1056
    1W        W51211   7.033  13.416   7.363  0.0242  0.2268  0.1640
    1W        W51212  26.836   5.343   7.364 -0.0439  0.1881 -0.1629
    1W        W51213   0.275  22.976   5.946 -0.0336  0.0404  0.0079
    1W        W51214   6.605  26.175   9.307  0.0732 -0.0241  0.1725
    1W        W51215  22.348   5.505   1.683  0.0692 -0.3273 -0.4001
    1W        W51216   6.741   4.899   2.462  0.1909  0.0970 -0.3766
    1W        W51217   2.771   1.144   8.966 -0.0022  0.0484 -0.4525
    1W        W51218   3.862  10.304   0.637  0.3191 -0.1873 -0.1506
    1W        W51219   1.137  11.975   5.983  0.0518  0.1225 -0.4980
    1W        W51220   5.701   1.608   0.870  0.1917  0.2610  0.0395
    1W        W51221  22.624   0.220   0.715 -0.2491  0.3212  0.0392
    1W        W51222  18.725   8.850   1.626 -0.0293  0.0279 -0.0677
    1W        W51223  27.536   2.319   6.662  0.1527  0.0816  0.1747
    1W        W51224   1.195   6.743   6.518 -0.0214  0.1045 -0.4706
    1W        W51225   8.057  20.983   8.832 -0.0447 -0.2645  0.0406
    1W        W51226   7.680   9.162   3.163  0.0622 -0.2657  0.1148
    1W        W51227  25.800  21.136   1.500 -0.0268  0.2273 -0.2394
    1W        W51228   6.180  25.980   6.787 -0.2168  0.1991 -0.1781
    1W        W51229   5.607  16.577   0.439 -0.0198  0.0884 -0.0222
    1W        W51230  21.194  27.000   2.123  0.2103 -0.0781 -0.0657
    1W        W51231  10.317   1.616   0.037  0.3072  0.1428 -0.3542
    1W        W51232  20.952  18.104   7.802  0.1346  0.2064  0.2384
    1W        W51233   4.777   1.536   2.933  0.1221 -0.0794 -0.1728
    1W        W51234  24.946  16.074   9.237 -0.2727  0.0860  0.0852
    1W        W51235  16.908  19.249   1.827 -0.0236  0.2072 -0.2924
    1W        W51236   0.563  24.482   2.003 -0.1462  0.1352 -0.3069
    1W        W51237   9.047  15.867   1.326  0.1559  0.0568  0.2744
    1W        W51238  26.770   6.297   8.769  0.3340  0.1564 -0.0790
    1W        W51239   6.728  27.608   7.890 -0.2186  0.0602  0.0223
    1W        W51240  22.506  30.120   9.253 -0.0779 -0.1296  0.0423
    1W        W51241   1.412  10.217   8.508 -0.2016  0.0122 -0.0274
    1W        W51242  16.438  23.844   8.612 -0.2204  0.0400  0.2609
    1W        W51243  10.619  28.452   7.340 -0.5027  0.0191  0.2679
    1W        W51244   1.052   9.254   0.650 -0.0452 -0.0008  0.0758
    1W        W51245  17.776   0.597   0.570 -0.0265  0.0175  0.1138
    1W        W51246  22.973   7.717   0.084 -0.3497  0.1116  0.1178
    1W        W51247   7.192  13.782   0.952 -0.4358  0.0669  0.0608
    1W        W51248  25.984  24.546   2.342 -0.1079 -0.2455  0.0908
    1W        W51249  11.542   2.801   3.082  0.0760  0.2280  0.4574
    1W        W51250   1.849   6.049   2.964  0.1230 -0.0790  0.2067
    1W        W51251  10.733  19.847   7.206 -0.0111  0.0528  0.0897
    1W        W51252  15.243  11.925   0.803  0.1960  0.0436 -0.1400
    1W        W51253  18.276  12.969   1.622 -0.3011 -0.1338  0.4823
    1W        W51254  21.877  13.993   7.282  0.1934 -0.0758 -0.0115
    1W        W51255  11.886  14.673   6.780  0.1515  0.2277  0.0130
    1W        W51256   6.550  10.690   2.973 -0.2323  0.2574  0.1892
    1W        W51257  26.660  17.450   6.545 -0.1308  0.0657 -0.2631
    1W        W51258  11.298   5.252   1.115  0.0907 -0.0278  0.3859
    1W        W51259  26.746  29.083   2.783  0.2939  0.1179  0.2517
    1W        W51260   8.304  28.918   8.727 -0.0146  0.1242  0.2467
    1W        W51261  15.007   7.844   7.215 -0.2022  0.0290  0.0106
    1W        W51262   8.307   4.126   8.153  0.1911 -0.0028  0.0793
    1W        W51263  26.069   5.822   7.065 -0.0253  0.2197 -0.2408
    1W        W51264  14.703  21.343   0.276 -0.2625  0.3821 -0.0908
    1W        W51265   3.428  23.057   6.099  0.1619 -0.0162 -0.3288
    1W        W51266  22.011  13.993   7.757 -0.2098  0.0856 -0.0731
    1W        W51267   9.641   5.149   1.434 -0.0509  0.1236 -0.0960
    1W        W51268   6.862   3.153   0.930 -0.2006  0.2568  0.4517
    1W        W51269  15.983  20.995   1.372  0.1000 -0.2773 -0.0911
    1W        W51270   1.734  10.097   6.448  0.0812 -0.0061 -0.0680
    1W        W51271  11.960  10.887   1.470  0.1576 -0.1661  0.1850
    1W        W51272  21.989  29.625   0.506  0.1615 -0.1463 -0.0793
    1W        W51273  15.217   9.482   8.082  0.0968  0.1027  0.2669
    1W        W51274   6.917   4.624   0.012  0.2012  0.0326 -0.0729
    1W        W51275  14.415   8.453   1.714 -0.1218  0.1407 -0.0442
    1W        W51276  16.256  29.281   8.057 -0.0625 -0.0411 -0.3042
    1W        W51277  29.188   5.558   9.111  0.1739  0.0015 -0.4973
    1W        W51278  28.595  14.464   7.145 -0.2375 -0.0844 -0.1132
    1W        W51279   6.182  20.092   6.448 -0.1083 -0.2543 -0.2449
    1W        W51280  13.787  29.780   2.273 -0.0054 -0.2222 -0.1397
    1W        W51281   5.914   6.334   0.374 -0.0303 -0.1433  0.0257
    1W        W51282   6.622   8.124   8.952 -0.1159 -0.3490  0.4312
    1W        W51283  24.160  28.433   8.200 -0.3332  0.4399 -0.1414
    1W        W51284  15.470  20.267   1.034 -0.1781  0.1244  0.1118
    1W        W51285   7.979  13.035   2.523 -0.0027 -0.0754  0.1434
    1W        W51286   9.263  20.449   9.311 -0.2375 -0.2060 -0.0791
    1W        W51287   7.635  28.481   8.197  0.1038 -0.0746 -0.1591
    1W        W51288  23.295  26.153   2.447 -0.0749 -0.0850 -0.2116
    1W        W51289   3.629   3.028   2.417 -0.0685 -0.1776 -0.0087
    1W        W51290  12.808  29.108   7.663 -0.2000 -0.0019 -0.0979
    1W        W51291  24.070  25.898   8.798 -0.0560  0.2111 -0.1032
    1W        W51292   2.211   4.026   2.476 -0.1096  0.3105  0.2715
    1W        W51293  20.120  18.194   2.583 -0.0284  0.0572  0.2256
    1W        W51294   2.939  20.544   1.773 -0.2311  0.0147 -0.3157
    1W        W51295  13.842   4.936   3.005  0.0535  0.1593 -0.4283
    1W        W51296  20.640  26.307   1.661  0.1159  0.3376  0.3008
    1W        W51297  26.891  19.972   8.937 -0.0444 -0.0505 -0.0020
    1W        W51298   3.536   8.633   8.404  0.0503  0.2023  0.2376
    1W        W51299   1.557  20.161   7.166  0.0137  0.0209 -0.2915
    1W        W51300  23.900  16.806   7.385  0.1025  0.1134 -0.0909
    1W        W51301  12.142   1.269   0.087  0.4200  0.0876  0.4521
    1W        W51302  11.860  27.886   1.612  0.0834  0.0540 -0.0153
    1W        W51303  11.137   0.877   1.269  0.2402  0.1354  0.0807
    1W        W51304   2.194  10.482   7.718  0.2742  0.2073  0.1971
    1W        W51305  23.069   6.132   9.377 -0.1807  0.1340 -0.1431
    1W        W51306  11.011  25.839   1.398 -0.2598 -0.1394 -0.2272
    1W        W51307  12.071  17.105   8.762 -0.0467  0.0312 -0.0963
    1W        W51308  12.923   4.418   8.157  0.0249  0.2825  0.0657
    1W        W51309  10.200  29.304   7.004 -0.3113  0.2696  0.0002
    1W        W51310   5.009   0.053   8.494  0.0317  0.2256  0.0296
    1W        W51311  13.881  20.886   8.838 -0.1175  0.0253 -0.3108
    1W        W51312  29.340  24.986   9.099  0.0467 -0.0111 -0.3795
    1W        W51313   6.689   0.541   1.535  0.0384  0.1771  0.1696
    1W        W51314   0.585  28.425   3.041  0.1620  0.1785 -0.0376
    1W        W51315  17.688  13.257   0.118 -0.3674 -0.1223  0.2900
    1W        W51316   9.568   1.494   3.228  0.0574 -0.2184  0.1275
    1W        W51317  11.072  11.154   9.002 -0.0488 -0.1954  0.0276
    1W        W51318  27.476  10.164   6.201  0.1029  0.0417  0.0212
    1W        W51319  19.953  29.848   9.292  0.0424 -0.1136  0.1091
    1W        W51320  11.710  16.319   7.873 -0.3563  0.0129  0.0629
    1W        W51321  16.249  11.934   1.871  0.0580 -0.2196  0.1368
    1W        W51322   6.574  21.119   6.399 -0.1022  0.0907  0.0735
    1W        W51323   6.740   9.696   1.194  0.0545  0.0586 -0.2481
    1W        W51324   8.107  19.408   1.691 -0.2126 -0.0830 -0.1692
    1W        W51325  24.514  25.948   9.143 -0.1047 -0.1386  0.1456
    1W        W51326  11.565  12.336   8.016  0.0068  0.1690  0.1780
    1W        W51327  11.414  16.224   1.564 -0.0554  0.1239 -0.2461
    1W        W51328  25.365   0.786   1.541 -0.0854  0.0047 -0.1673
    1W        W51329  11.479  28.369   7.312  0.0284  0.4835 -0.1447
    1W        W51330  24.644  27.249   2.142  0.1401  0.2139 -0.1887
    1W        W51331  22.256   2.364   0.908  0.0458  0.1103 -0.1602
    1W        W51332  25.373  28.509   1.474  0.3656  0.0274 -0.2513
    1W        W51333  18.688   5.379   2.155 -0.1341 -0.0114 -0.2562
    1W        W51334   9.795  26.614   7.286  0.0162  0.2100  0.2025
    1W        W51335   7.129  20.549   0.731  0.0470 -0.0370 -0.1052
    1W        W51336  23.270   7.583   8.588 -0.0520 -0.1077  0.3211
    1W        W51337  13.402  21.504   2.305  0.1907 -0.3653 -0.0785
    1W        W51338  19.696  12.912   8.256  0.3507  0.0446  0.1424
    1W        W51339  20.824  27.231   7.294  0.0018  0.1148 -0.1839
    1W        W51340   9.323  25.928   1.437 -0.1535  0.2035  0.2934
    1W        W51341  13.376  21.528   0.044  0.2009  0.1149  0.1224
    1W        W51342  23.130  13.104   2.426 -0.0998 -0.2030 -0.2654
    1W        W51343   6.524  15.149   7.599 -0.1174  0.1206 -0.2922
    1W        W51344   6.893  16.396   3.000  0.3519 -0.1918 -0.2517
    1W        W51345   1.091   0.184   0.115 -0.3272 -0.0681 -0.0307
    1W        W51346  21.578  14.392   0.019  0.1496 -0.1134 -0.3231
    1W        W51347   8.027   2.797   1.592 -0.0178  0.0119  0.1225
    1W        W51348   0.209  20.795   9.020  0.1246 -0.3310 -0.0055
    1W        W51349  23.458   6.792   3.003 -0.0001  0.2656 -0.1205
    1W        W51350  12.878  25.295   9.319 -0.1646 -0.2556  0.1980
    1W        W51351  26.788  17.013   6.879 -0.0313 -0.0988  0.0407
    1W        W51352   4.150   5.074   8.298 -0.2159  0.1527  0.0682
    1W        W51353  22.592  22.214   0.335 -0.0879 -0.2043 -0.1221
    1W        W51354  22.443  25.823   2.064  0.1807  0.1305 -0.0079
    1W        W51355  26.401  20.198   0.713  0.1445  0.0118  0.1983
    1W        W51356  10.594   8.120   3.104  0.1803  0.1644  0.0132
    1W        W51357   5.241   6.203   1.049  0.2178  0.0543 -0.1035
    1W        W51358   8.517  13.378   8.463 -0.0631  0.2940 -0.0836
    1W        W51359  29.706  13.633   0.387  0.1148  0.0847  0.0705
    1W        W51360  27.578   5.655   6.236 -0.1282  0.3034 -0.1022
    1W        W51361  26.098  13.048   6.836  0.0052 -0.4367  0.1818
    1W        W51362  12.556   2.288   8.694  0.0729 -0.1046  0.1607
    1W        W51363  17.760  16.473   7.908  0.0220 -0.2813 -0.0979
    1W        W51364   7.554  12.069   7.780  0.0666  0.1217  0.0748
    1W        W51365  13.149  25.814   3.551  0.2941 -0.2091 -0.0494
    1W        W51366  15.113  13.415   0.493  0.0731  0.0618  0.1039
    1W        W51367   3.147  18.465   6.472  0.0959  0.1955  0.0961
    1W        W51368  13.067  22.021   8.737 -0.1829 -0.1115  0.1719
    1W        W51369  28.680  15.646   4.867  0.0746  0.3122  0.0184
    1W        W51370   2.318  27.715   8.397  0.3226 -0.2496 -0.0709
    1W        W51371  20.975  23.076   8.623 -0.1606 -0.1075 -0.1588
    1W        W51372  28.084  19.708   6.707 -0.4986  0.5346 -0.0340
    1W        W51373  14.337  16.806   7.645 -0.1368 -0.0812  0.1250
    1W        W51374   6.086  12.183   8.077  0.2598 -0.3789  0.3085
    1W        W51375  15.644  29.060   0.531  0.0726 -0.1665 -0.0223
    1W        W51376   8.189  19.977   8.976 -0.0511 -0.1300 -0.1718
    1W        W51377   0.788   6.127   0.670 -0.0234  0.0643 -0.0232
    1W        W51378   3.819  18.436   7.097  0.2264  0.0353  0.0756
    1W        W51379   3.488  21.802   1.378  0.2308 -0.0392  0.0860
    1W        W51380   7.609  14.118   9.011 -0.0935 -0.0204  0.1328
    1W        W51381   6.091   2.223   9.056  0.0101  0.0901 -0.1017
    1W        W51382  26.304  20.785   0.091  0.0639  0.1497  0.0852
    1W        W51383  14.425  29.173   1.680  0.0434 -0.2336 -0.0084
    1W        W51384  16.085  29.797   1.379 -0.1732  0.0539 -0.0465
    1W        W51385  19.755  18.621   7.491 -0.1632  0.0700  0.2491
    1W        W51386   0.585   7.154   2.334 -0.1124 -0.1707  0.1768
    1W        W51387  27.150  28.238   0.293 -0.1625 -0.1723  0.0287
    1W        W51388   2.554  28.505   2.914 -0.2288 -0.1021 -0.0420
    1W        W51389   2.319   6.305   2.282  0.0760 -0.5395 -0.2543
    1W        W51390  19.337  10.907   0.846 -0.1592  0.2345 -0.3051
    1W        W51391  26.883  11.312   7.925  0.1009  0.1355 -0.0480
    1W        W51392  17.443  29.705   0.789  0.1102 -0.2127  0.3134
    1W        W51393  20.748  24.004   8.022 -0.1698  0.0742 -0.0228
    1W        W51394   2.493  25.604   8.580 -0.0322 -0.0674  0.0024
    1W        W51395   8.957  28.298   3.467 -0.0734  0.0772  0.2837
    1W        W51396  14.842  14.610   7.095 -0.4397  0.2961  0.0096
    1W        W51397  13.168   5.333   0.473 -0.5709  0.0054  0.0446
    1W        W51398   6.057  12.257   2.323  0.1649  0.1750  0.3967
    1W        W51399  27.269   2.597   6.004  0.1740 -0.0597 -0.1010
    1W        W51400  12.736  20.266   0.361  0.4294  0.1217 -0.1552
    1W        W51401   9.073  22.770   2.430 -0.4216  0.2677  0.2021
    1W        W51402  12.430   4.667   2.793 -0.1761  0.0491 -0.2142
    1W        W51403  10.580   4.762   7.631  0.1544  0.1148  0.0052
    1W        W51404   3.947   3.127   1.302  0.0391 -0.2915  0.0796
    1W        W51405  25.761  29.959   7.152  0.0894  0.2491 -0.1427
    1W        W51406  15.153   2.877   2.093  0.3122  0.2099  0.1199
    1W        W51407   2.321  19.174   8.535 -0.1009 -0.1684  0.2421
    1W        W51408   4.835   9.264   2.574 -0.0856 -0.0331  0.2590
    1W        W51409   0.893   4.535   1.936  0.0096 -0.0328  0.1966
    1W        W51410  16.552   4.660   8.356  0.1804 -0.0106  0.1131
    1W        W51411  12.743  28.612   8.705 -0.2293 -0.1842  0.0795
    1W        W51412  15.515  14.142   7.958 -0.0578 -0.2308 -0.2668
    1W        W51413  29.163  16.762   7.138  0.1288 -0.0358  0.1260
    1W        W51414   7.272   1.241   8.640  0.0417  0.0407 -0.0105
    1W        W51415   0.724  24.432   1.367  0.1399 -0.1798 -0.0613
    1W        W51416  23.056  21.516   6.602 -0.2338 -0.0239 -0.3034
    1W        W51417   9.161   4.021   2.104  0.0152 -0.0779 -0.3271
    1W        W51418   3.837  22.200   6.476  0.1303  0.1160  0.0425
    1W        W51419  14.073   1.306   1.652 -0.1987 -0.1884  0.1169
    1W        W51420   3.781  17.882   7.014  0.2587  0.0137 -0.0899
    1W        W51421  25.476  28.458   0.419 -0.0544  0.4261  0.0614
    1W        W51422  12.665  17.254   8.782  0.2105 -0.0939  0.1591
    1W        W51423  26.111  12.411   8.431 -0.0853 -0.0083  0.1219
    1W        W51424  11.869   5.373   1.114 -0.1263  0.0981  0.1901
    1W        W51425   8.688   5.336   0.415 -0.2791  0.0488 -0.2091
    1W        W51426  21.544  12.891   9.184 -0.0068  0.0441  0.0328
    1W        W51427   4.821   6.802   3.493  0.1878  0.2111 -0.1438
    1W        W51428  11.992  26.578   2.456  0.1941 -0.2373  0.1295
    1W        W51429  23.192  24.349   9.377 -0.4171 -0.1740  0.0743
    1W        W51430  25.472  17.353   1.511  0.0701 -0.0855  0.0004
    1W        W51431   8.062  19.552   9.336  0.1259  0.0999  0.0896
    1W        W51432   7.602  17.284   2.304 -0.1932  0.0156 -0.0350
    1W        W51433   9.085  21.794   7.502 -0.4122 -0.0822  0.3011
    1W        W51434  17.835  12.021   7.308  0.5837 -0.1120  0.2126
    1W        W51435  20.599   9.803   7.444 -0.1575  0.2927  0.0461
    1W        W51436   0.400  26.375   1.077 -0.0943  0.1415  0.0701
    1W        W51437  28.812  18.892   7.706 -0.3074  0.4550 -0.0192
    1W        W51438   5.320  21.038   8.406 -0.3215 -0.1876  0.0023
    1W        W51439  20.095  20.343   1.173 -0.1819 -0.0380  0.1796
    1W        W51440  16.015  11.779   7.783  0.0596  0.1980  0.2552
    1W        W51441  10.075   0.375   0.524 -0.1615 -0.4239  0.4310
    1W        W51442  12.692   8.924   3.026 -0.4252 -0.3675  0.2199
    1W        W51443   2.346  25.531   7.325 -0.2255 -0.2711  0.4047
    1W        W51444  19.813  20.872   5.975  0.0159 -0.0714 -0.0754
    1W        W51445  15.278  29.558   9.087  0.2642  0.0281 -0.1011
    1W        W51446  22.712  18.044   0.236 -0.1421 -0.0795 -0.1232
    1W        W51447  15.223  27.381   7.358 -0.3646  0.2607 -0.3579
    1W        W51448   4.086  16.997   9.127 -0.0084 -0.2467  0.1546
    1W        W51449  22.749  18.363   0.635 -0.2137  0.1015  0.0443
    1W        W51450   4.449  13.981   2.846 -0.1007  0.3267 -0.0917
    1W        W51451   1.069   6.838   7.235 -0.1344 -0.1912  0.4014
    1W        W51452  23.696  27.949   2.643  0.0144  0.0059  0.3796
    1W        W51453  25.345  14.961   8.893 -0.0774  0.1153 -0.0397
    1W        W51454  18.981  28.951   2.109  0.2038  0.0218  0.0046
    1W        W51455  18.286   3.791   3.107  0.1564  0.0456  0.0193
    1W        W51456   5.032  27.143   0.031 -0.1811 -0.3571 -0.0544
    1W        W51457  16.100  15.587   8.870 -0.2029 -0.0347  0.0940
    1W        W51458  17.213   9.224   9.240 -0.0303  0.1943  0.0167
    1W        W51459  20.933   2.220   7.688  0.2366  0.0649  0.1209
    1W        W51460  18.766  14.012   2.310 -0.2443 -0.0461 -0.0261
    1W        W51461  24.844  29.681   2.508  0.3042 -0.0352  0.0168
    1W        W51462  12.484  30.008   8.491  0.0505  0.1698 -0.0989
    1W        W51463  25.974  24.787   6.958 -0.0090  0.0502  0.1254
    1W        W51464   5.918  12.162   8.992  0.0907  0.2976  0.2155
    1W        W51465  18.351   3.224   1.116  0.3046 -0.2921 -0.2782
    1W        W51466  11.447  17.222   7.898 -0.0341 -0.0547  0.1640
    1W        W51467  18.798  13.127   9.180 -0.0148 -0.0845  0.1620
    1W        W51468  11.906  14.527   1.063 -0.1773 -0.4565  0.0239
    1W        W51469  22.652   9.655   7.582  0.2164 -0.1998 -0.2903
    1W        W51470   4.507   3.590   8.314  0.0747 -0.0457  0.0673
    1W        W51471   5.299  21.590   7.499  0.2229  0.3080  0.1416
    1W        W51472  17.080   4.650   0.258 -0.1615  0.0270  0.1081
    1W        W51473  28.310  25.002   7.066  0.0613 -0.3222 -0.5756
    1W        W51474  14.658  27.362   2.069  0.2905 -0.1816  0.1410
    1W        W51475   7.143   2.127   1.872 -0.2962  0.2231  0.0564
    1W        W51476   8.938   1.918   7.126 -0.2393  0.0490 -0.1119
    1W        W51477  22.865   3.158   1.558 -0.1830 -0.3267  0.2253
    1W        W51478  16.103  18.649   1.696  0.0138  0.0433 -0.1099
    1W        W51479  26.247   1.426   7.218 -0.0324 -0.0832 -0.2831
    1W        W51480  18.215  25.470   7.866  0.2435  0.0160 -0.0806
    1W        W51481   2.502   2.482   2.092 -0.0582  0.2469 -0.0433
    1W        W51482  17.126  28.243   2.521 -0.1029  0.1929  0.0258
    1W        W51483  15.185   8.339   1.987 -0.3157  0.3838  0.0252
    1W        W51484  24.292   9.376   9.183  0.0661 -0.0103 -0.2592
    1W        W51485  16.952  18.744   8.673  0.0046 -0.0107 -0.2132
    1W        W51486  25.520   9.463   9.092  0.1044  0.3008 -0.0475
    1W        W51487   2.244  15.489   7.101  0.0486 -0.1956 -0.0922
    1W        W51488  25.010  16.465   0.715 -0.1796 -0.0158 -0.0459
    1W        W51489  28.240   2.043   2.760 -0.0287  0.0602  0.0458
    1W        W51490  10.204  11.095   3.437  0.4031 -0.3068 -0.0105
    1W        W51491  19.699  11.725   1.488 -0.2728 -0.5196  0.0886
    1W        W51492   7.753  27.189   7.905  0.2081 -0.1877  0.3191
    1W        W51493  24.834  11.700   6.179  0.1193 -0.2444  0.2712
    1W        W51494  21.066  22.916   7.661  0.1861 -0.1885 -0.0070
    1W        W51495  11.924  25.024   2.501 -0.0869 -0.0625 -0.2035
    1W        W51496  28.529  12.449   6.835 -0.3475  0.0391  0.0756
    1W        W51497  15.050  18.825   0.680  0.1579 -0.0492 -0.3390
    1W        W51498  18.712   6.003   2.811 -0.1995 -0.0620 -0.1528
    1W        W51499  11.204   0.617   7.529 -0.0002 -0.1581 -0.0894
    1W        W51500  28.610  17.203   8.621 -0.1165 -0.1391 -0.0294
    1W        W51501  11.838  17.758   0.186  0.1705  0.1556  0.1693
    1W        W51502  18.134  23.393   0.220 -0.1630 -0.0266 -0.0632
    1W        W51503  21.230  23.440   7.239 -0.0509  0.0041 -0.0188
    1W        W51504   1.624  27.239   1.731  0.0451  0.0708  0.1016
    1W        W51505  11.984   7.922   8.109 -0.0164  0.1005  0.3328
    1W        W51506  28.735  11.607   6.992  0.0853 -0.3044  0.2448
    1W        W51507  28.912  11.743   1.291  0.1132 -0.1848  0.2599
    1W        W51508  17.638  13.781   8.476 -0.0476  0.1050 -0.1473
    1W        W51509  18.867  15.229   8.630 -0.2133  0.0313  0.2278
    1W        W51510  10.090  22.581   6.627  0.1312 -0.0284 -0.1850
    1W        W51511  17.945  26.094   1.086 -0.1433  0.0903 -0.0282
    1W        W51512  23.337  21.261   1.845  0.4784  0.0982  0.0488
    1W        W51513  29.697  27.328   3.053 -0.2412 -0.1164  0.2603
    1W        W51514   2.707  19.229   0.291 -0.1030  0.0371 -0.0598
    1W        W51515  29.229   6.888   1.294 -0.0593 -0.0157  0.2465
    1W        W51516   9.182   5.326   1.505 -0.0327 -0.0761 -0.4491
    1W        W51517   4.797  28.747   1.490 -0.1995 -0.1105  0.1010
    1W        W51518   4.578  21.485   1.132  0.3199  0.1065 -0.1480
    1W        W51519   1.305  26.482   7.071 -0.1132  0.0939  0.4685
    1W        W51520  23.946   4.233   0.306 -0.1342 -0.2525  0.0188
    1W        W51521  19.586  11.787   7.765 -0.3067 -0.3244 -0.1561
    1W        W51522  14.098  25.332   8.765  0.2266 -0.0662  0.0203
    1W        W51523  20.688  22.495   3.068 -0.3146  0.3048  0.0855
    1W        W51524  10.036  15.818   2.117 -0.4940  0.2192 -0.0586
    1W        W51525  27.460  13.923   7.458 -0.1618 -0.0814 -0.0662
    1W        W51526  12.892  14.268   1.101  0.1753  0.1661  0.0730
    1W        W51527  27.811   6.893   8.073 -0.3721  0.0728  0.0385
    1W        W51528  28.980  20.401   7.855  0.0546 -0.0138 -0.3946
    1W        W51529  20.323   8.958   2.246 -0.2750 -0.2361 -0.1811
    1W        W51530  19.015   9.904   7.466 -0.2364 -0.1414  0.0350
    1W        W51531   3.898   0.564   0.142 -0.1365 -0.1559 -0.0563
    1W        W51532   4.760  24.126   8.492 -0.2775 -0.0387 -0.2333
    1W        W51533  10.279  26.165   2.659 -0.3539 -0.1372  0.3256
    1W        W51534   1.868  17.203   0.706  0.1065 -0.0464  0.1058
    1W        W51535  19.504   6.371   8.226  0.0541  0.0783  0.1039
    1W        W51536   5.711   0.553   1.665 -0.0616 -0.1358 -0.2190
    1W        W51537  16.985  16.329   2.068  0.2343  0.1274 -0.0964
    1W        W51538  19.747  28.244   1.033 -0.1559 -0.2992  0.0971
    1W        W51539   7.171   2.922   8.348  0.1892 -0.2875 -0.2903
    1W        W51540  23.186   0.532   0.090  0.2109  0.0866  0.0568
    1W        W51541  26.333   2.756   1.012 -0.1682  0.0478  0.3485
    1W        W51542  14.059  18.411   8.815  0.2245 -0.1670 -0.0919
    1W        W51543  18.002   8.975   8.046 -0.1604 -0.0105 -0.1494
    1W        W51544  17.577  28.008   8.981  0.3213 -0.4207 -0.1639
    1W        W51545  16.862  21.700   2.013 -0.0695 -0.0369 -0.0778
    1W        W51546   0.000   6.440   8.797 -0.0537 -0.2212 -0.1812
    1W        W51547  10.451  24.451   7.770  0.1267 -0.0349 -0.0587
    1W        W51548  11.303  26.833   7.089 -0.2268 -0.0483  0.0576
    1W        W51549   7.309   2.843   2.553  0.0784 -0.0558 -0.1718
    1W        W51550  26.169  20.982   7.382  0.1505 -0.0119 -0.0079
    1W        W51551  11.697   1.608   9.297 -0.0358  0.2547  0.1581
    1W        W51552  20.928  21.097   2.008 -0.0922  0.1189 -0.0856
    1W        W51553   6.130   9.315   0.102  0.0266 -0.0176 -0.3059
    1W        W51554  15.329   0.382   3.291 -0.1578 -0.0418 -0.0186
    1W        W51555  25.922  26.890   7.012  0.1544 -0.2267  0.1354
    1W        W51556  15.614   0.956   8.792  0.1440 -0.1963  0.2425
    1W        W51557  29.297  27.601   0.056 -0.1321  0.0205  0.2236
    1W        W51558   0.948  15.968   5.580 -0.0864  0.2881  0.0125
    1W        W51559  16.137   7.094   9.019 -0.1075  0.1318  0.0218
    1W        W51560   9.289   3.089   2.017 -0.2317  0.0519 -0.1676
    1W        W51561  28.253  13.829   8.207 -0.0910  0.0892  0.0808
    1W        W51562   0.927  16.797   6.043  0.1883 -0.1249 -0.0350
    1W        W51563  28.385  28.246   1.407  0.1254  0.0365  0.2903
    1W        W51564  17.551  25.258   9.316  0.0108  0.0198  0.2152
    1W        W51565   8.457   8.765   9.003  0.0843 -0.0677  0.1721
    1W        W51566   0.257  15.796   0.581  0.1677 -0.0331  0.2386
    1W        W51567  18.997   0.715   1.242  0.2281  0.3462 -0.2069
    1W        W51568   7.359   7.345   2.808 -0.1300  0.1943  0.1696
    1W        W51569  11.091  27.431   8.973 -0.3401  0.0957  0.1498
    1W        W51570  25.315  14.684   0.356  0.1421 -0.0293 -0.0997
    1W        W51571  27.870   2.085   3.086 -0.0337 -0.0599 -0.3128
    1W        W51572  28.915  13.882   6.109 -0.0830  0.1268 -0.3819
    1W        W51573  24.518  25.754   2.443  0.0365  0.0744 -0.0966
    1W        W51574  11.102  11.088   1.146 -0.0660 -0.2022  0.0431
    1W        W51575  23.031  24.554   0.485  0.0427  0.0977 -0.3955
    1W        W51576   0.683  22.213   2.130  0.0172  0.2014  0.0723
    1W        W51577  29.794   9.391   9.061 -0.0912  0.4410 -0.0085
    1W        W51578  13.197  12.015   8.155 -0.0671 -0.2820 -0.0860
    1W        W51579  10.016  28.154   2.542  0.1355  0.0836 -0.0310
    1W        W51580  10.505   2.780   8.556  0.0190 -0.1016 -0.1798
    1W        W51581   9.406  11.879   7.940 -0.0527 -0.0992  0.0474
    1W        W51582  16.175   3.054   7.414  0.0771  0.3204 -0.1112
    1W        W51583  10.236  27.471   2.524 -0.1458  0.0024 -0.2856
    1W        W51584   2.843  29.018   0.015  0.2503 -0.1225  0.1667
    1W        W51585  13.767  23.040   7.847  0.0835 -0.3396 -0.0796
    1W        W51586  11.561  29.968   7.100 -0.2987 -0.2858 -0.1263
    1W        W51587  14.822  24.985   2.190  0.3957  0.1997 -0.2978
    1W        W51588  18.264  17.537   1.482  0.1454 -0.4681  0.2841
    1W        W51589  16.244   3.317   7.838  0.1859 -0.1839  0.0499
    1W        W51590  23.366  19.248   8.944 -0.1873  0.1069 -0.3212
    1W        W51591  27.879  16.184   0.181 -0.2343 -0.2077 -0.0684
    1W        W51592  25.836   7.659   0.522 -0.3886 -0.3248 -0.2572
    1W        W51593  14.394   1.441   1.320 -0.0023 -0.2625  0.0264
    1W        W51594  21.959  29.635   8.125  0.0952  0.0666 -0.1202
    1W        W51595  21.946  20.178   8.890 -0.3219  0.2389 -0.0042
    1W        W51596  28.672  25.790   6.913 -0.0956  0.0310 -0.3242
    1W        W51597  28.102   8.995   0.381 -0.2416 -0.0208  0.0362
    1W        W51598   7.097   3.800   8.909 -0.0239 -0.1179 -0.1345
    1W        W51599  16.117  12.448   7.664  0.0813 -0.1724 -0.0597
    1W        W51600   2.958   7.309   1.279 -0.1394 -0.3623 -0.2805
    1W        W51601   4.643  18.770   8.968 -0.2124  0.0298 -0.1742
    1W        W51602   7.934   0.064   3.466 -0.0650  0.0019  0.3477
    1W        W51603  28.529  30.098   6.047 -0.1027  0.1062 -0.1247
    1W        W51604  18.803   7.974   2.129 -0.2408  0.1913 -0.4662
    1W        W51605   9.422   1.851   8.335 -0.0017 -0.3037  0.0731
    1W        W51606   1.029   6.324   6.908  0.2247  0.0753  0.0609
    1W        W51607  14.525  25.009   0.472 -0.1274 -0.1117  0.0286
    1W        W51608  20.707  11.094   7.149  0.0164 -0.1050 -0.2005
    1W        W51609  16.433  14.621   7.123 -0.0575 -0.0269 -0.0523
    1W        W51610   5.438   1.924   2.296  0.1500 -0.1487 -0.1437
    1W        W51611  27.889  18.359   7.546 -0.0027 -0.3721 -0.2541
    1W        W51612  22.491  26.346   2.175  0.0393  0.2438  0.2884
    1W        W51613  21.283   0.929   6.951  0.0583 -0.2340  0.1347
    1W        W51614  26.954   9.577   2.481  0.1903  0.0767 -0.0523
    1W        W51615   0.545   0.080   2.090  0.0240  0.0478  0.2260
    1W        W51616  12.726  20.881   8.894 -0.1662  0.1339  0.0620
    1W        W51617  28.987  26.581   7.536  0.2929 -0.2815  0.2022
    1W        W51618   6.415  23.316   0.769  0.2601 -0.1836  0.1356
    1W        W51619   8.196  23.897   7.232 -0.0864 -0.1227 -0.0870
    1W        W51620  23.356  13.944   1.491 -0.2561 -0.0843  0.5181
    1W        W51621  14.874  21.184   7.791  0.1887  0.0357  0.1210
    1W        W51622  13.000   0.009   3.667 -0.6025  0.1864 -0.3792
    1W        W51623  13.745  23.394   6.916  0.4807 -0.1825  0.1820
    1W        W51624  23.164  20.284   1.723  0.4163  0.0327  0.0294
    1W        W51625  25.267  16.617   5.647  0.1454 -0.0727 -0.1638
    1W        W51626   0.050  24.454   1.986 -0.0131  0.2929 -0.1866
    1W        W51627  26.867  21.202   1.526 -0.1141 -0.1720  0.1223
    1W        W51628  13.500  12.891   9.349 -0.2225  0.1388 -0.0971
    1W        W51629  27.685  21.228   1.394 -0.1092  0.0315 -0.3516
    1W        W51630  13.503  28.991   0.747  0.1979  0.3428  0.0372
    1W        W51631   0.147  13.570   5.524 -0.2436  0.0146  0.0191
    1W        W51632  17.004  15.795   8.963 -0.1995 -0.1144  0.0766
    1W        W51633   9.040  26.712   0.300 -0.2757  0.0943 -0.1738
    1W        W51634  18.447  19.031   7.902 -0.0114 -0.2641  0.2225
    1W        W51635  27.875  25.587   0.090  0.0442 -0.2101 -0.0048
    1W        W51636   3.297  16.779   6.363  0.1440 -0.5457  0.1631
    1W        W51637   2.536  19.996   7.390 -0.3295  0.1365 -0.1514
    1W        W51638  13.809  14.372   0.984 -0.0517  0.2081 -0.1375
    1W        W51639  16.782  29.962   7.504 -0.0904 -0.1604 -0.0540
    1W        W51640  17.013   1.026   0.890 -0.0625 -0.0068  0.1316
    1W        W51641   1.120  13.111   0.883  0.1394 -0.0239 -0.0872
    1W        W51642   3.841  16.729   8.233  0.0395 -0.2875 -0.0345
    1W        W51643   9.832   8.620   0.202 -0.0522  0.1356 -0.0038
    1W        W51644  14.651  26.090   2.417 -0.0252  0.4066  0.1296
    1W        W51645  29.775  17.269   7.744 -0.0611  0.1693  0.2005
    1W        W51646  15.181  19.070   7.338  0.0727  0.2148 -0.1428
    1W        W51647  13.623  28.220   8.322 -0.1768  0.0231 -0.1042
    1W        W51648  18.455  11.357   7.834 -0.1082  0.3663 -0.1705
    1W        W51649  18.248   9.433   9.073 -0.0567 -0.0919 -0.0356
    1W        W51650  29.631   5.850   0.044 -0.2133 -0.1649  0.1251
    1W        W51651   5.115  16.071   9.125 -0.0967  0.0316  0.0130
    1W        W51652  24.687   3.605   7.573 -0.1092  0.2595 -0.2502
    1W        W51653  12.626   6.965   8.892 -0.0194 -0.1193  0.1438
    1W        W51654  23.972  22.372   8.772  0.1012 -0.2933 -0.0482
    1W        W51655  20.378  14.505   9.130 -0.2108  0.0946 -0.0050
    1W        W51656  16.280  22.983   8.048 -0.1868 -0.0124  0.2600
    1W        W51657   0.210  12.593   0.293 -0.2862  0.0964  0.1848
    1W        W51658  16.340  29.021   9.195  0.0526  0.1185 -0.0069
    1W        W51659  28.707  26.270   6.654  0.0411  0.0152 -0.3390
    1W        W51660   6.332  28.951   2.605  0.0795  0.4449  0.0283
    1W        W51661  28.452   4.430   7.656 -0.0065 -0.1070  0.2752
    1W        W51662   2.581  13.294   1.086  0.2823  0.0245  0.2835
    1W        W51663  20.271  14.536   8.636  0.1035  0.1431  0.2579
    1W        W51664  24.570   6.870   7.265 -0.1855 -0.3032  0.1177
    1W        W51665  11.626  23.206   8.578 -0.0959 -0.3461  0.2436
    1W        W51666  15.591   4.315   1.561  0.1342 -0.0921  0.2000
    1W        W51667   9.154  17.822   1.063 -0.0767 -0.2053  0.0361
    1W        W51668  12.121  25.537   8.273 -0.0957 -0.1129 -0.1922
    1W        W51669  20.251   3.413   0.994  0.0732 -0.3921  0.0168
    1W        W51670  10.741  25.940   6.734 -0.0490  0.0899 -0.1815
    1W        W51671  25.303  24.222   7.585 -0.4022 -0.1921 -0.0142
    1W        W51672  18.085   1.926   7.138 -0.0741  0.1861  0.0584
    1W        W51673  21.252  18.931   0.316 -0.1095  0.1765  0.1826
    1W        W51674   3.299  16.673   0.015 -0.0960 -0.0750  0.3265
    1W        W51675  28.156   7.673   8.605  0.2868  0.0251 -0.0961
    1W        W51676  28.181  12.325   9.202 -0.0973 -0.3878 -0.0085
    1W        W51677   0.918  23.106   7.622  0.2418  0.6347 -0.1980
    1W        W51678  13.463  24.742   6.825 -0.0992 -0.4667  0.1404
    1W        W51679  20.269   9.615   7.047 -0.0685 -0.0311 -0.0576
    1W        W51680  10.115   8.026   8.092 -0.0144  0.0551 -0.2871
    1W        W51681  13.779  10.108   8.370 -0.1732 -0.2445 -0.3336
    1W        W51682  27.778  28.109   8.153  0.0988  0.0922 -0.1808
    1W        W51683   8.949  22.852   8.078  0.1628  0.4109  0.0677
    1W        W51684   2.620  18.377   1.306  0.0543 -0.3707  0.1869
    1W        W51685   3.752  13.059   1.388 -0.0299 -0.1187 -0.0614
    1W        W51686  23.151  19.820   6.471  0.0458 -0.3361  0.0786
    1W        W51687  27.873  23.494   5.905 -0.1425  0.1247 -0.2398
    1W        W51688   5.569   3.291   2.213 -0.1223 -0.0680  0.0339
    1W        W51689  23.082   4.099   7.026 -0.3219 -0.1206  0.0545
    1W        W51690   2.294   3.107   7.590  0.0602  0.1524  0.1209
    1W        W51691  13.729  15.209   1.283 -0.1552 -0.1363 -0.1505
    1W        W51692  24.065   7.643   8.205 -0.2258 -0.1998  0.2138
    1W        W51693  24.279   6.229   6.695  0.2803  0.1700  0.0712
    1W        W51694  10.869   4.319   3.500  0.1265 -0.1039  0.0008
    1W        W51695   5.067   1.856   3.271 -0.0713 -0.1000 -0.3120
    1W        W51696  24.185  27.493   7.195 -0.2047  0.1147  0.1624
    1W        W51697   8.342   3.392   7.598  0.0144 -0.0722  0.0759
    1W        W51698   0.948  16.420   7.438 -0.2279 -0.3330 -0.3077
    1W        W51699  24.778  14.990   0.406  0.0468 -0.0784 -0.2392
    1W        W51700   0.732  19.598   5.835  0.0563  0.0260 -0.2299
    1W        W51701  10.920  16.948   2.579 -0.1294 -0.1146 -0.0628
    1W        W51702  20.828   6.622   1.556  0.2816 -0.2744  0.0571
    1W        W51703  12.016  15.305   2.262  0.0771  0.0643 -0.1141
    1W        W51704   2.119  29.722   7.601 -0.0350 -0.2133  0.2665
    1W        W51705  14.328   4.482   3.968 -0.0259  0.4006  0.1186
    1W        W51706  25.972   7.933   2.064 -0.0380 -0.2197  0.0327
    1W        W51707  17.287  28.528   8.147  0.1636  0.0224 -0.2905
    1W        W51708  15.604  24.559   1.589  0.1371  0.0802 -0.2181
    1W        W51709  29.361   1.874   3.155  0.0534 -0.2043  0.0300
    1W        W51710   0.727  23.975   1.143  0.0301  0.0497 -0.1299
    1W        W51711  22.136  28.803   9.179  0.0219  0.1358  0.0938
    1W        W51712   8.545  20.719   0.734 -0.2186 -0.0062  0.6571
    1W        W51713   8.327   7.308   8.823  0.2425  0.1122 -0.2868
    1W        W51714  14.031   9.181   0.022  0.4277 -0.0283 -0.3132
    1W        W51715   8.088  18.838   1.468 -0.1217  0.2885  0.0064
    1W        W51716  15.228  11.104   8.286  0.2848  0.2849 -0.0170
    1W        W51717  20.925   3.416   9.297 -0.1236  0.2484  0.0387
    1W        W51718  15.914  21.893   1.461 -0.0044  0.1467  0.0145
    1W        W51719   3.416  24.355   5.612  0.1340  0.3724  0.0546
    1W        W51720   7.837  21.395   8.519 -0.1612  0.0664  0.0438
    1W        W51721  13.126   8.300   8.790 -0.2055  0.0086  0.1532
    1W        W51722  22.311  28.355   6.932  0.1673  0.1901 -0.1566
    1W        W51723  26.639  11.603   1.302 -0.0779 -0.1884 -0.0002
    1W        W51724  10.522   5.814   7.525  0.0281  0.0517 -0.3401
    1W        W51725  10.194  14.734   7.419  0.2978  0.0227  0.0802
    1W        W51726  18.293  26.981   2.964 -0.1367  0.1825  0.0763
    1W        W51727  20.276   5.249   2.552  0.3113  0.1557  0.2058
    1W        W51728  12.210   1.539   1.238 -0.1381  0.2972  0.2247
    1W        W51729  12.053  26.213   6.976 -0.2453  0.0418  0.1049
    1W        W51730  17.446   4.943   7.757 -0.1577 -0.0813  0.0161
    1W        W51731  21.040   7.315   9.352 -0.2088  0.1086  0.1292
    1W        W51732  25.029  19.471   1.720 -0.3267 -0.1145  0.2039
    1W        W51733   6.787  22.250   6.691  0.1735  0.0701  0.0475
    1W        W51734  22.230   9.840   6.220  0.2329  0.0018 -0.2974
    1W        W51735  27.514   2.388   8.870  0.1607  0.1619  0.0245
    1W        W51736  17.036  29.447   0.623  0.1590 -0.0212  0.0594
    1W        W51737  23.386  13.338   0.897 -0.0950  0.1326  0.2483
    1W        W51738   3.269   5.644   8.561  0.0833  0.0271  0.3429
    1W        W51739  29.870  20.407   8.372  0.0732 -0.0149 -0.0077
    1W        W51740  16.946  27.996   8.265  0.1226 -0.2398 -0.2101
    1W        W51741  24.383   7.707   9.351  0.0587 -0.0338 -0.0926
    1W        W51742   1.389  17.429   5.584  0.2986 -0.2368  0.1721
    1W        W51743  11.444   7.001   1.965  0.2044  0.0689  0.0904
    1W        W51744  27.859  24.751   6.373  0.1062  0.1847  0.0807
    1W        W51745   1.003  25.654   1.418  0.1606 -0.1586 -0.0312
    1W        W51746  11.835   6.713   0.996  0.2101 -0.2873 -0.0368
    1W        W51747  13.239  27.524   2.240 -0.1580  0.0287 -0.4897
    1W        W51748   7.781  12.650   8.936  0.0330  0.0956  0.0829
    1W        W51749  28.394   0.188   0.190 -0.1665 -0.2020 -0.3703
    1W        W51750  21.939   6.154   0.344  0.0974 -0.1739  0.1795
    1W        W51751   4.375  13.160   1.231  0.2384  0.0617 -0.1239
    1W        W51752  10.886  19.167   1.312 -0.0731  0.0554 -0.2426
    1W        W51753  16.591  19.978   0.660  0.3059  0.1211 -0.1672
    1W        W51754  21.262  13.813   0.760  0.0887  0.2492 -0.2008
    1W        W51755  27.339  10.556   6.565 -0.2954  0.1209 -0.0962
    1W        W51756  23.314   5.479   2.091  0.1061  0.1709 -0.1688
    1W        W51757   7.078   8.901   2.049 -0.1703  0.0739 -0.0978
    1W        W51758   5.520  24.444   8.186  0.0130 -0.5970 -0.0173
    1W        W51759  17.395  17.388   1.240  0.1566  0.2296 -0.2219
    1W        W51760  29.774  13.968   6.660 -0.0713 -0.0157 -0.1051
    1W        W51761  27.629   8.895   7.777 -0.1580  0.1019  0.2073
    1W        W51762  20.422   0.084   0.670 -0.0569  0.1701  0.1679
    1W        W51763  24.559  28.224   0.529 -0.3227 -0.0827  0.0577
    1W        W51764  28.627  20.898   8.815 -0.4478 -0.1374  0.2515
    1W        W51765  21.292  16.465   1.105 -0.1509 -0.0405 -0.2293
    1W        W51766  16.553  26.499   2.265  0.2018 -0.1250 -0.1093
    1W        W51767   1.021   3.312   7.691  0.0285 -0.0044 -0.1422
    1W        W51768  18.453  20.914   6.965 -0.2295  0.0328  0.2954
    1W        W51769  19.010  14.966   0.987  0.1719 -0.2677 -0.2811
    1W        W51770  12.290   9.940   2.329 -0.1485  0.5174  0.0162
    1W        W51771   6.620   7.274   0.744 -0.3415  0.1400 -0.1430
    1W        W51772   8.507  28.921   0.711 -0.0073  0.1586 -0.0407
    1W        W51773  15.691  26.914   0.788 -0.0885 -0.0797  0.2062
    1W        W51774   5.312   6.839   8.371 -0.1568 -0.0702  0.0295
    1W        W51775  12.990  18.875   1.954  0.0909  0.0286  0.0592
    1W        W51776  28.874  29.165   2.408 -0.1169  0.2275 -0.2003
    1W        W51777   9.041  17.564   7.481  0.2460  0.0136 -0.0326
    1W        W51778   4.313   8.756   0.914  0.0466  0.0801  0.0865
    1W        W51779  22.301  14.942   7.630  0.1694  0.0656 -0.2879
    1W        W51780  17.110  26.557   7.600  0.1592  0.0041  0.1365
    1W        W51781  24.933  28.995   8.275 -0.1516 -0.1006 -0.1110
    1W        W51782  10.127  24.899   7.818 -0.0302 -0.0829  0.2564
    1W        W51783  25.269   3.731   6.320 -0.2400  0.1483  0.0426
    1W        W51784   3.283   7.371   0.655  0.3123  0.3397 -0.0696
    1W        W51785   8.924  29.102   2.484 -0.2180 -0.0642 -0.0150
    1W        W51786   5.600  25.000   0.419 -0.0661 -0.2340 -0.1460
    1W        W51787  13.375  11.767   2.108  0.0594  0.0691  0.1762
    1W        W51788  10.851  17.952   1.231 -0.2343  0.2779  0.1500
    1W        W51789  22.710  12.071   9.371  0.3206 -0.0199 -0.1201
    1W        W51790  23.257  18.574   0.629  0.1929 -0.4164  0.2774
    1W        W51791   6.155  25.170   1.881 -0.0135 -0.0754  0.2419
    1W        W51792  20.463  28.568   1.617 -0.0146  0.1078 -0.2022
    1W        W51793  10.335  21.284   7.990 -0.1926 -0.2690  0.3623
    1W        W51794  17.697   1.852   1.661  0.2049 -0.1143 -0.0241
    1W        W51795  19.512  18.285   0.272 -0.0179 -0.2973 -0.1047
    1W        W51796  13.334   4.214   1.040  0.2925 -0.0488 -0.1047
    1W        W51797  19.390  13.918   1.841 -0.4755 -0.1988 -0.0623
    1W        W51798   8.348  25.266   0.551  0.1296 -0.0189 -0.2849
    1W        W51799  23.227   7.032   7.189 -0.3282 -0.4550 -0.1948
    1W        W51800  24.444  10.419   6.711  0.0425 -0.1602 -0.2766
    1W        W51801   7.018   1.827   3.304 -0.0619  0.1066 -0.0179
    1W        W51802  29.251  25.162   7.688  0.0710  0.0034  0.1050
    1W        W51803  29.057   1.494   8.109  0.0356  0.1777 -0.0735
    1W        W51804  11.507   6.274   8.952  0.0426 -0.0825 -0.1069
    1W        W51805   8.500   0.867   2.672  0.0269  0.0324 -0.0843
    1W        W51806  25.197   8.694   7.677  0.3219 -0.0379  0.2987
    1W        W51807  29.421  17.702   7.160 -0.2346  0.1819  0.2360
    1W        W51808  23.255  23.866   6.624 -0.1671 -0.2488  0.3588
    1W        W51809  17.241  25.096   7.289 -0.1123 -0.2389 -0.2366
    1W        W51810   7.251  23.969   1.463 -0.2082  0.0385 -0.0431
    1W        W51811  29.852  20.012   1.152  0.0105 -0.0684  0.2189
    1W        W51812   4.661  15.329   1.143 -0.3306  0.1247  0.1362
    1W        W51813   9.877   1.926   0.046 -0.2530 -0.0689  0.0155
    1W        W51814  22.083   4.771   7.786  0.0694  0.1739 -0.1014
    1W        W51815  14.594  29.222   1.126 -0.0917  0.0709 -0.4326
    1W        W51816  23.429   0.387   7.045  0.2162  0.0274  0.0497
    1W        W51817   0.963  29.379   2.078  0.0954  0.1052 -0.0249
    1W        W51818  20.968   4.112   7.537  0.2765 -0.2790  0.0759
    1W        W51819  27.628  18.614   7.896 -0.0602  0.2629 -0.1025
    1W        W51820  14.641   8.260   3.745  0.1227 -0.0544 -0.1197
    1W        W51821  18.508  23.884   8.935 -0.3422 -0.1374 -0.0844
    1W        W51822  27.629  22.979   0.170 -0.3833  0.0557  0.1121
    1W        W51823   4.275   7.991   2.179  0.2183  0.1054 -0.1208
    1W        W51824  22.663  25.417   1.758 -0.1617  0.1741  0.0340
    1W        W51825  22.736  13.857   8.866 -0.1521 -0.0587  0.2227
    1W        W51826   0.899  10.609   2.677 -0.0077  0.1704  0.1278
    1W        W51827  27.098  15.832   8.212 -0.1532  0.4210 -0.1934
    1W        W51828  21.483  18.629   0.759 -0.0148 -0.1175 -0.0983
    1W        W51829  11.172  22.516   1.408  0.2556 -0.0404 -0.0611
    1W        W51830  28.983   5.680   0.724  0.1616 -0.0923  0.1262
    1W        W51831  14.106  21.250   1.490  0.5149 -0.3002 -0.1154
    1W        W51832   7.625  26.836   8.788  0.3654  0.3532 -0.1560
    1W        W51833   5.483  10.105   8.402  0.2500 -0.1213 -0.1353
    1W        W51834  24.848  23.397   1.892 -0.0628  0.0954 -0.2873
    1W        W51835  17.215   4.078   1.822  0.0499  0.0174 -0.0707
    1W        W51836  10.551  17.137   8.776 -0.0307 -0.5454  0.3607
    1W        W51837  17.414   7.963   0.333  0.0742 -0.1269 -0.2118
    1W        W51838   2.844   9.411   7.247  0.4018  0.0602 -0.0801
    1W        W51839  20.999  21.958   6.985 -0.3683 -0.0686  0.2122
    1W        W51840  24.591   7.778   7.951  0.0316  0.3244 -0.2245
    1W        W51841  13.958   3.621   1.613 -0.1380 -0.1558 -0.2260
    1W        W51842   7.184   9.711   7.062  0.1963 -0.3225 -0.1535
    1W        W51843   6.727  15.912   0.458 -0.0474  0.2085 -0.2106
    1W        W51844  15.902  12.147   1.522  0.0312  0.2956  0.0162
    1W        W51845  20.450  12.843   1.563  0.2180  0.0236  0.1172
    1W        W51846   6.713  29.807   1.793  0.0383 -0.0962  0.2597
    1W        W51847  23.258  26.468   8.454 -0.1535 -0.0213  0.3185
    1W        W51848   7.866  13.573   7.221  0.1140 -0.1906  0.1234
    1W        W51849   9.641  26.767   7.727 -0.3006 -0.2994 -0.1963
    1W        W51850   2.711  28.047   7.088 -0.1247 -0.1199 -0.4212
    1W        W51851  20.480   3.487   1.477 -0.1609  0.2246 -0.0239
    1W        W51852  25.328   6.017   7.482  0.1875  0.1650 -0.0425
    1W        W51853  21.658  10.730   1.657  0.3224 -0.0786 -0.1775
    1W        W51854  17.412  27.966   6.360 -0.1507 -0.4321 -0.0264
    1W        W51855   8.506  15.700   0.331 -0.2762 -0.1676 -0.0457
    1W        W51856  26.227   8.705   8.103  0.1783 -0.0350 -0.0656
    1W        W51857  23.851  27.871   8.087 -0.0227 -0.0993  0.1515
    1W        W51858  11.535   6.681   7.771 -0.0192 -0.0404  0.1186
    1W        W51859  29.856  18.734   1.913  0.0320  0.3582  0.0151
    1W        W51860  28.092  15.792   6.145 -0.0543  0.2544  0.0460
    1W        W51861  27.393  18.420   8.316 -0.1900  0.1808 -0.0196
    1W        W51862   3.144   9.930   0.321 -0.0135  0.1662 -0.0043
    1W        W51863   9.718   3.656   3.521 -0.0156  0.3884 -0.0096
    1W        W51864  29.935  30.136   0.327  0.3339  0.0189 -0.2273
    1W        W51865  15.767  23.384   2.063 -0.2903  0.0361 -0.3409
    1W        W51866  25.101  24.240   7.112 -0.0431 -0.1580  0.0320
    1W        W51867  22.891  15.038   6.832  0.2382  0.1411  0.1835
    1W        W51868   8.447  10.356   0.884 -0.0401 -0.1122 -0.1386
    1W        W51869  19.031  22.411   2.639 -0.2505 -0.0147  0.2516
    1W        W51870  10.952   1.585   8.971 -0.1813 -0.2691 -0.4187
    1W        W51871  13.137  20.026   0.485  0.1970 -0.0889 -0.2020
    1W        W51872   2.537  12.177   2.544 -0.1177 -0.1404 -0.1537
    1W        W51873  15.344  23.481   1.571 -0.2182 -0.0707 -0.0645
    1W        W51874  29.912  13.054   6.337  0.0358 -0.2463  0.0350
    1W        W51875  22.529  27.877   7.352 -0.0303 -0.1775 -0.1243
    1W        W51876  13.863   2.601   9.069  0.1011  0.4536  0.3536
    1W        W51877  26.093  19.530   7.553 -0.2508 -0.0553 -0.1593
    1W        W51878   8.135  22.590   7.161  0.2438 -0.0388  0.5685
    1W        W51879  21.424  17.476   0.083  0.2663  0.3032 -0.2630
    1W        W51880  11.680  26.720   2.901  0.0060  0.1614 -0.0267
    1W        W51881   2.400   5.126   6.086 -0.1725 -0.1524 -0.4024
    1W        W51882  19.115  25.321   2.001  0.0251 -0.1932 -0.0557
    1W        W51883   5.090  27.740   2.380 -0.1748  0.0773  0.1176
    1W        W51884  13.710  15.526   7.249 -0.5379  0.2769  0.1296
    1W        W51885  29.663  20.194   2.136 -0.3408 -0.0230 -0.0611
    1W        W51886   5.235  17.238   0.598  0.0997  0.0237  0.0674
    1W        W51887   8.848   0.497   2.255  0.0379 -0.0507  0.2823
    1W        W51888  29.003  26.468   2.575 -0.0469  0.5147 -0.0012
    1W        W51889   7.268   1.031   9.099 -0.3018  0.0312  0.1474
    1W        W51890  12.697   9.019   8.823 -0.0931 -0.1270  0.2751
    1W        W51891   0.537   0.164   9.372  0.0091  0.0352  0.2114
    1W        W51892  15.263   9.268   7.609  0.1200 -0.0555  0.1275
    1W        W51893   9.219  29.555   2.575 -0.1425  0.0492 -0.2521
    1W        W51894  14.986  26.180   2.855  0.0050  0.1394 -0.1912
    1W        W51895   6.820   1.975   8.318  0.0804 -0.0403 -0.0535
    1W        W51896   0.724  21.753   8.805  0.6338  0.0590  0.1359
    1W        W51897  14.324  25.532   2.605  0.0245  0.0384 -0.1071
    1W        W51898  16.123  17.840   1.388  0.0840  0.0087 -0.2701
    1W        W51899   6.312  10.348   7.739  0.3558  0.3555  0.0342
    1W        W51900   5.079  17.573   1.101  0.3010 -0.3353  0.0175
    1W        W51901   0.801   3.554   2.145  0.0029 -0.1626 -0.0413
    1W        W51902  20.037   8.874   1.335  0.1515 -0.0408 -0.3041
    1W        W51903  14.981   9.070   0.286 -0.2062 -0.0933 -0.0151
    1W        W51904   7.956   9.335   0.858 -0.0719  0.0378 -0.1592
    1W        W51905   0.618   1.483   2.183  0.2305 -0.1443 -0.1708
    1W        W51906   9.614  27.845   0.964 -0.0018  0.2912  0.0267
    1W        W51907  17.454  21.712   6.746  0.1372 -0.0723  0.0272
    1W        W51908  12.164  15.032   1.213  0.1609  0.0284  0.2524
    1W        W51909   8.689  12.195   9.011 -0.1155 -0.2119 -0.0906
    1W        W51910  18.869   2.007   2.641 -0.3386  0.1610 -0.0627
    1W        W51911   1.847  23.101   8.098  0.0036  0.1751  0.4013
    1W        W51912  22.436  26.105   0.360  0.1368  0.0760  0.1652
    1W        W51913  23.470  13.654   1.837 -0.2281  0.1604 -0.1117
    1W        W51914   8.777  15.460   8.406  0.0776  0.2181  0.0920
    1W        W51915   9.390  16.123   9.399 -0.2840 -0.2246  0.1326
    1W        W51916  18.638   0.310   1.152  0.0825  0.2323  0.0584
    1W        W51917  24.236  20.213   1.694 -0.0055 -0.1796  0.0282
    1W        W51918   4.823  19.998   9.358 -0.3071  0.0112  0.2541
    1W        W51919   1.396  22.875   5.727 -0.5774 -0.0795  0.0906
    1W        W51920  22.117  28.031   6.581  0.0123 -0.3486 -0.0036
    1W        W51921   0.798   9.626   2.540  0.2715  0.1935  0.4354
    1W        W51922   0.443   3.934   7.751  0.1323 -0.1341  0.2133
    1W        W51923  13.037   8.412   0.606 -0.1295  0.0563 -0.2872
    1W        W51924  21.762  19.458   8.384 -0.1386  0.2106 -0.0492
    1W        W51925  13.692   2.397   2.910  0.0084 -0.1976  0.2188
    1W        W51926  12.741   8.171   2.599  0.2445 -0.1754  0.0500
    1W        W51927  20.704  17.658   0.546  0.1555 -0.0278  0.1934
    1W        W51928   7.766   1.013   1.255 -0.4084 -0.1103 -0.0359
    1W        W51929  25.922   0.286   7.845  0.1095 -0.2421  0.5092
    1W        W51930  15.357  25.056   6.954  0.0224  0.0615 -0.0971
    1W        W51931  29.409   0.441   1.412  0.2820 -0.2046  0.0187
    1W        W51932  13.821  19.625   9.401 -0.2812  0.1226 -0.2290
    1W        W51933   7.436  11.015   0.109 -0.1621  0.1032  0.0452
    1W        W51934  24.222   8.216   6.984  0.3557 -0.1862  0.0541
    1W        W51935   7.673  28.162   1.507 -0.2045  0.0415  0.0832
    1W        W51936  18.786  22.010   1.124  0.2568  0.0957  0.2003
    1W        W51937  21.083   7.782   8.567 -0.0361  0.0450 -0.0363
    1W        W51938  29.209  16.772   6.285 -0.1985 -0.2414  0.2262
    1W        W51939  18.540  17.207   0.251  0.2654 -0.2266  0.0551
    1W        W51940  27.808  14.846   0.143  0.0856  0.1001  0.1022
    1W        W51941  13.888  12.000   0.279 -0.1193  0.1018  0.3640
    1W        W51942  25.689  21.510   0.584 -0.0905 -0.2290 -0.0407
    1W        W51943   4.438   2.696   6.746 -0.0034  0.1733 -0.0978
    1W        W51944   4.006  28.035   2.371 -0.0348 -0.1266 -0.3948
    1W        W51945  28.436   1.433   0.948 -0.0087  0.0008  0.0258
    1W        W51946   6.842  18.377   6.323  0.1341  0.3425  0.0707
    1W        W51947  15.503   4.647   7.108  0.1068 -0.0706  0.0232
    1W        W51948  28.397   2.291   9.190  0.0432 -0.0649  0.2992
    1W        W51949   2.534  29.056   3.536  0.0884 -0.1267  0.0079
    1W        W51950   4.042  24.018   5.866  0.4964 -0.0445 -0.1332
    1W        W51951  22.057  20.368   0.759 -0.2231 -0.1672  0.2707
    1W        W51952  20.699  11.366   9.088  0.1991 -0.1075 -0.3013
    1W        W51953   4.248   5.187   2.108  0.3786  0.0920 -0.0291
    1W        W51954  24.485  20.784   1.998 -0.0527  0.1745  0.2416
    1W        W51955  26.557  14.512   7.126  0.1088 -0.1068  0.1274
    1W        W51956  27.416  28.287   1.412 -0.0484 -0.0509 -0.3526
    1W        W51957  24.049  26.055   7.263  0.2049  0.2397 -0.2574
    1W        W51958  18.052   6.097   7.568 -0.0979 -0.0111 -0.0964
    1W        W51959   9.826  12.790   1.006  0.2447  0.2013  0.1859
    1W        W51960  10.842  29.184   2.423  0.0091 -0.1235 -0.0047
    1W        W51961  24.474  10.316   6.096 -0.1362  0.1214 -0.2179
    1W        W51962   8.147   7.791   0.690 -0.1318 -0.1126  0.0936
    1W        W51963  16.778  22.661   2.448  0.2544  0.1222  0.0184
    1W        W51964  27.863   7.631   2.537 -0.0015 -0.0183  0.1915
    1W        W51965   9.722  20.859   7.507 -0.1102  0.2137 -0.0075
    1W        W51966  22.901  22.640   0.174 -0.2635  0.0570 -0.3277
    1W        W51967  21.039   2.914   2.050  0.1016  0.3811 -0.1186
    1W        W51968   9.162  15.551   2.270 -0.1638  0.1811 -0.2983
    1W        W51969  10.423   5.433   9.087  0.0467 -0.2936 -0.0946
    1W        W51970  15.973  12.381   2.901  0.0741 -0.0287 -0.0588
    1W        W51971   6.340  19.136   5.715 -0.1149 -0.1627  0.1575
    1W        W51972  27.569  11.992   6.428  0.0848  0.0334 -0.1190
    1W        W51973   7.887  20.091   6.006  0.0553  0.0945 -0.0080
    1W        W51974   4.159  16.133   8.871 -0.0800 -0.0791  0.1933
    1W        W51975  22.786   8.095   9.181  0.2920  0.0858 -0.0843
    1W        W51976   4.421  16.701   8.209 -0.1362  0.0276 -0.1947
    1W        W51977  16.191  28.723   1.696 -0.2257  0.1405  0.0229
    1W        W51978   8.658  15.363   9.252  0.1978  0.0854 -0.0664
    1W        W51979  14.954  11.363   1.040 -0.1692  0.1242  0.1995
    1W        W51980  13.614  24.889   7.274  0.1764  0.0337 -0.2552
    1W        W51981   0.364   5.791   0.838 -0.1002 -0.0038 -0.0238
    1W        W51982  27.183  20.274   1.579  0.0220  0.1044  0.1629
    1W        W51983   6.375   3.249   0.895  0.1948  0.2122  0.1643
    1W        W51984  28.426  16.247   6.811 -0.2722  0.2654  0.1346
    1W        W51985  28.787  16.159   8.999 -0.0159 -0.0045  0.0551
    1W        W51986  10.749   3.319   0.787 -0.1693  0.2076 -0.1820
    1W        W51987  27.686  12.455   6.329  0.1673 -0.0399 -0.0735
    1W        W51988  10.421  23.480   0.741  0.0525 -0.0025 -0.0043
    1W        W51989  11.487  29.782   1.538 -0.0578 -0.3561 -0.2705
    1W        W51990  17.293  14.935   8.961 -0.4197 -0.0937 -0.1392
    1W        W51991   6.055   4.475   1.006 -0.1216  0.0354 -0.0266
    1W        W51992   9.701  22.318   0.730  0.0490 -0.0958 -0.1699
    1W        W51993   4.310  21.946   2.052 -0.0358  0.3466  0.0960
    1W        W51994  20.989  28.872   9.273 -0.2641  0.2557 -0.2916
    1W        W51995  23.586  18.975   2.213  0.0647 -0.0786 -0.0177
    1W        W51996  10.609   0.585   7.731 -0.1351  0.0998 -0.3690
    1W        W51997  21.050   6.740   3.363  0.2986  0.1394 -0.2356
    1W        W51998  22.477   9.381   6.849 -0.0416  0.0633  0.3522
    1W        W51999  12.302  10.196   8.226 -0.0832 -0.0207  0.0202
    1W        W52000  13.338  19.842   1.224  0.0434 -0.2262  0.3393
    1W        W52001  19.285  18.511   1.049  0.0473  0.0946  0.0559
    1W        W52002  22.469   7.704   0.492 -0.3297 -0.0403  0.1863
    1W        W52003   0.604  25.838   6.690 -0.0028  0.0871 -0.1842
    1W        W52004  26.441  12.728   9.038 -0.0128  0.2569 -0.0021
    1W        W52005   8.025  26.453   1.837  0.1195 -0.0606  0.1371
    1W        W52006  30.008  24.849   6.816 -0.3305 -0.2332  0.1276
    1W        W52007  15.497   5.993   1.797  0.1687 -0.0958 -0.0847
    1W        W52008  18.747  25.014   7.018  0.1127 -0.3367  0.2948
    1W        W52009  16.855   7.847   8.593  0.0475 -0.3587  0.0776
    1W        W52010  15.244  20.291   8.797 -0.0262  0.2946 -0.1699
    1W        W52011   0.136  28.317   1.234  0.2505  0.0131 -0.0566
    1W        W52012  10.830   7.715   8.180  0.0578 -0.2904  0.1319
    1W        W52013  23.715   3.700   3.053  0.1513  0.0606  0.3097
    1W        W52014  16.680   7.044   7.778 -0.0540 -0.1172  0.2356
    1W        W52015   7.483   2.326   2.553 -0.1915  0.0587  0.0646
    1W        W52016  17.202  16.142   1.562  0.0138  0.0712  0.0842
    1W        W52017  23.156  22.731   8.528 -0.1685 -0.0264  0.1941
    1W        W52018   5.046   7.648   0.398 -0.1052  0.1319 -0.0172
    1W        W52019   5.434  27.548   8.447 -0.2755  0.1864  0.0186
    1W        W52020  11.162  16.485   8.555 -0.0354 -0.1925  0.2401
    1W        W52021  28.297   8.514   8.590  0.2382 -0.2948  0.0795
    1W        W52022  10.763   4.633   7.141  0.0464 -0.0168 -0.2406
    1W        W52023   8.482   8.769   2.487  0.0448  0.0253 -0.1008
    1W        W52024   5.915  13.205   1.585  0.0272  0.1581  0.2627
    1W        W52025   0.612   2.690   6.706 -0.0028  0.1403  0.1534
    1W        W52026  14.871  17.312   7.131 -0.0114  0.0872 -0.2941
    1W        W52027  26.389  19.009   6.111  0.1772 -0.1004  0.0718
    1W        W52028   0.238  22.059   6.804  0.1081 -0.1745  0.1101
    1W        W52029  17.231  17.778   6.238  0.0821 -0.0130  0.1953
    1W        W52030  20.814  18.753   1.641  0.1184  0.0025  0.3324
    1W        W52031  28.865  23.317   7.988  0.0598  0.2012  0.1174
    1W        W52032   1.655   5.303   0.221  0.1334  0.0885  0.1267
    1W        W52033  12.824  22.262   6.013 -0.2588  0.1783  0.2800
    1W        W52034   6.067  12.512   7.231 -0.2435 -0.5036 -0.1397
    1W        W52035  26.502  29.276   1.207 -0.2868  0.2023  0.4459
    1W        W52036   3.749  21.361   1.068  0.0491  0.1137 -0.2653
    1W        W52037  16.590  26.478   9.026 -0.5906  0.0212  0.1055
    1W        W52038  26.556  17.134   7.736 -0.4390  0.1316 -0.2851
    1W        W52039   2.209  21.185   0.339  0.1437 -0.2123 -0.2428
    1W        W52040  22.235  10.584   1.754 -0.0228 -0.0754  0.0925
    1W        W52041  24.472   2.361   2.003 -0.0372 -0.0241  0.1723
    1W        W52042  27.464   9.397   6.358 -0.0630 -0.3300  0.0473
    1W        W52043  27.179  12.275   1.172  0.0186  0.1507  0.1265
    1W        W52044  18.529   1.685   1.322  0.1457 -0.0447  0.1634
    1W        W52045  26.739  26.048   1.816 -0.1529  0.0463 -0.1595
    1W        W52046  24.341  15.135   6.442 -0.2584  0.2741 -0.0515
    1W        W52047  29.159  18.696   8.581 -0.1579 -0.0601 -0.0201
    1W        W52048  18.167   5.896   0.401 -0.2178 -0.0661  0.3499
    1W        W52049   4.681  29.822   1.844 -0.1290 -0.0346 -0.0054
    1W        W52050  20.862   5.942   3.022 -0.0216  0.1384 -0.1005
    1W        W52051   5.643   9.125   0.030  0.0710 -0.1977  0.1867
    1W        W52052  13.855   8.166   8.231 -0.0734 -0.0362  0.3195
    1W        W52053  27.071  22.903   9.274  0.0109  0.1311 -0.0582
    1W        W52054   9.662   2.400   0.065  0.0647  0.2307  0.1002
    1W        W52055  21.836  17.446   8.286 -0.1020  0.2844 -0.2514
    1W        W52056  28.177  26.943   2.957  0.0697  0.3991  0.0126
    1W        W52057  21.337  13.075   1.323 -0.2461 -0.1995 -0.2619
    1W        W52058  26.075   9.447   1.326 -0.3202 -0.2324 -0.0888
    1W        W52059   2.954  14.345   7.973 -0.1018  0.1533  0.0317
    1W        W52060  23.177   0.203   0.987  0.2050 -0.0970  0.1609
    1W        W52061  21.231  11.925   8.207  0.0855 -0.1964 -0.0976
    1W        W52062  11.115   3.048   3.239  0.2254  0.1380  0.0959
    1W        W52063   9.827  15.035   2.275  0.1637  0.0115  0.1089
    1W        W52064  25.006   5.835   1.329 -0.0353  0.1080 -0.0159
    1W        W52065  17.460  21.030   1.980 -0.0150 -0.0753 -0.0789
    1W        W52066   7.190  27.263   7.839 -0.1569  0.2205  0.2423
    1W        W52067  28.180  22.915   0.211 -0.0559 -0.3050  0.0044
    1W        W52068   3.465   7.384   7.594 -0.1556  0.0750 -0.1161
    1W        W52069   7.059  27.303   3.214  0.1555 -0.0871 -0.0868
    1W        W52070  28.677  19.701   7.413 -0.3312  0.4050 -0.0889
    1W        W52071   5.391  23.537   1.256  0.0172  0.3700 -0.3075
    1W        W52072  28.516   4.454   2.808  0.1864  0.0409  0.1104
    1W        W52073  12.981   9.749   2.892 -0.0056  0.1302 -0.0817
    1W        W52074   2.807   6.374   6.472  0.0394 -0.0811  0.0238
    1W        W52075  12.339   6.398   9.057 -0.1691 -0.2812  0.0102
    1W        W52076  19.247  19.011   0.957  0.0825  0.1176  0.0484
    1W        W52077   0.713  26.537   2.879 -0.1519 -0.2756 -0.1408
    1W        W52078  12.677   4.576   3.295  0.0599  0.2103  0.2361
    1W        W52079  16.296  17.043   0.962  0.4100 -0.1641 -0.0525
    1W        W52080  26.706  11.294   8.420  0.2332 -0.0418 -0.2311
    1W        W52081  22.707   8.065   3.422  0.0624  0.2630  0.2300
    1W        W52082  22.099   9.822   0.984  0.0578 -0.0534  0.0024
    1W        W52083  21.390   6.953   8.579  0.0384 -0.1306 -0.0249
    1W        W52084  16.230   9.241   7.589  0.1169  0.3155  0.0798
    1W        W52085  15.248   9.610   2.201  0.4092  0.2563  0.1088
    1W        W52086  29.960   9.566   1.199  0.0098  0.0400 -0.2589
    1W        W52087   9.670   4.826   2.795  0.0819 -0.3656  0.0516
    1W        W52088  21.070   7.381   7.719  0.1923  0.0802 -0.0110
    1W        W52089   3.922   3.951   2.375 -0.1659  0.2395  0.0092
    1W        W52090  26.979  19.705   6.367  0.1462  0.0702 -0.1837
    1W        W52091  15.953  24.684   3.412  0.1825  0.2230  0.1332
    1W        W52092  24.499  15.252   8.725  0.2212  0.2838  0.0149
    1W        W52093  14.021  29.082   1.001 -0.0127  0.0841  0.2883
    1W        W52094   5.564  29.637   9.153 -0.2673 -0.0655 -0.0052
    1W        W52095  20.544   3.917   2.894 -0.3443 -0.0552 -0.4051
    1W        W52096   0.527   5.787   6.451 -0.0036 -0.1668 -0.0805
    1W        W52097  18.334  25.565   0.493  0.0337 -0.0557 -0.1099
    1W        W52098   0.741  19.637   1.505 -0.0802 -0.5049  0.0870
    1W        W52099  24.673  10.142   8.673  0.0292  0.1511  0.0930
    1W        W52100   7.545  29.474   7.460 -0.1193  0.1849  0.1294
    1W        W52101  28.037  24.737   8.453  0.1679 -0.0197 -0.2092
    1W        W52102   8.794   5.085   1.247 -0.0777 -0.2409  0.2883
    1W        W52103  26.112  17.788   6.441 -0.1332  0.1574  0.0787
    1W        W52104  22.730   7.988   8.633  0.3695  0.3020  0.0446
    1W        W52105  22.014  29.462   3.063  0.0225  0.0540  0.0241
    1W        W52106   5.455  20.583   8.733  0.1695 -0.4126 -0.1491
    1W        W52107   3.935   4.340   1.650  0.2004 -0.1917 -0.0558
    1W        W52108  18.632  15.716   1.209  0.2924  0.0091 -0.2234
    1W        W52109  26.304  29.558   0.791 -0.0480  0.0455 -0.1992
    1W        W52110   0.851   1.151   8.676 -0.0023 -0.0984 -0.0510
    1W        W52111  19.876   2.799   7.764  0.1549  0.2623  0.2625
    1W        W52112  27.724  13.837   5.880 -0.0374 -0.2590  0.1209
    1W        W52113  10.802  23.900   8.571 -0.1878  0.0853 -0.1280
    1W        W52114   9.284  12.144   8.355 -0.1399 -0.0670  0.0737
    1W        W52115  24.257  28.246   1.491 -0.1487 -0.0072  0.0245
    1W        W52116  14.176   1.498   2.173  0.1145  0.0830  0.1178
    1W        W52117   4.848  15.689   9.251  0.0977 -0.0433  0.0059
    1W        W52118  21.813  18.820   7.567  0.0325  0.0630  0.1935
    1W        W52119   1.829   2.871   1.994  0.0671 -0.0387 -0.0872
    1W        W52120  11.492  14.852   2.831  0.0314 -0.0592  0.2475
    1W        W52121   4.533  21.424   5.973 -0.0396  0.2941 -0.0241
    1W        W52122   9.907   7.569   8.709 -0.1091 -0.2247  0.1680
    1W        W52123   5.998  17.887   8.340  0.0625 -0.2475 -0.0167
    1W        W52124   1.048  28.629   9.376 -0.0075 -0.0649  0.1951
    1W        W52125  10.693  10.176   0.221 -0.2821  0.1331  0.2567
    1W        W52126  23.366   2.019   6.856  0.0480 -0.0135 -0.0853
    1W        W52127   4.953  25.009   6.249  0.0298 -0.0159 -0.1615
    1W        W52128   1.555   4.805   8.154 -0.1354  0.0992 -0.1792
    1W        W52129   9.541  10.889   0.033  0.0773  0.1021  0.0014
    1W        W52130  27.313  17.074   6.950 -0.0233  0.0447 -0.1611
    1W        W52131  11.550   9.624   9.381  0.3401  0.2441 -0.0055
    1W        W52132  29.763  23.078   8.571 -0.0097  0.0834  0.0168
    1W        W52133   8.120  21.006   0.839  0.0447 -0.1441  0.0222
    1W        W52134   5.030  22.300   0.499 -0.0666 -0.1799 -0.4220
    1W        W52135   3.880  23.124   1.055 -0.1608 -0.1302  0.0655
    1W        W52136   9.648  18.086   6.895 -0.1641 -0.0641  0.4894
    1W        W52137  21.225  23.521   0.016 -0.0481  0.0775  0.0944
    1W        W52138  26.150  30.045   1.073 -0.2402  0.1403  0.1883
    1W        W52139  24.762  24.090   7.750  0.0126 -0.1965  0.1182
    1W        W52140  22.095  19.057   6.091  0.2203 -0.2096  0.1364
    1W        W52141   4.630   7.725   1.406  0.1754  0.0859  0.1167
    1W        W52142  22.222   1.163   0.755  0.1688  0.1397 -0.0695
    1W        W52143   2.452  19.527   7.277 -0.0868 -0.2789 -0.1141
    1W        W52144   2.517  13.276   0.204 -0.3340  0.1804  0.0087
    1W        W52145  25.517  11.217   0.279 -0.1717  0.1854 -0.1838
    1W        W52146  25.122  26.907   2.101  0.2543  0.0939 -0.0147
    1W        W52147   4.179  27.475   3.229  0.1913  0.3388 -0.0745
    1W        W52148  18.116  13.367   1.353 -0.0651  0.2104 -0.1600
    1W        W52149   8.215   8.191   7.129  0.1247  0.0600  0.1955
    1W        W52150   3.118   5.681   8.084  0.2027 -0.0721 -0.1036
    1W        W52151  27.810  16.726   7.969 -0.2163  0.3502  0.1727
    1W        W52152   6.544  28.997   0.171 -0.1936 -0.2002  0.1788
    1W        W52153  18.003  29.603   1.963  0.0731  0.0695  0.2848
    1W        W52154  16.282   1.204   0.991 -0.4328 -0.0024  0.0352
    1W        W52155  26.838  18.619   8.836 -0.1693  0.1406  0.0931
    1W        W52156  11.871  18.974   2.027 -0.1384  0.0298  0.0688
    1W        W52157  27.194  18.650   1.352 -0.0587  0.1515  0.1188
    1W        W52158   5.864  13.025   9.040 -0.2493 -0.1396  0.0404
    1W        W52159  25.681  12.928   0.986 -0.0474 -0.0233 -0.1105
    1W        W52160  21.785  25.440   7.792  0.1118 -0.2936  0.0888
    1W        W52161   6.394  19.048   7.345 -0.0983 -0.1970 -0.0369
    1W        W52162  27.554  12.187   0.111 -0.0874 -0.0166  0.1203
    1W        W52163  28.585  27.616   8.591 -0.1091  0.1387  0.1517
    1W        W52164   4.430  28.342   2.206  0.4271  0.4670  0.0539
    1W        W52165   0.119   0.540   2.120 -0.3642  0.0783  0.0968
    1W        W52166  21.183  24.634   8.936 -0.2058 -0.3184 -0.2734
    1W        W52167  16.296  13.801   0.770 -0.0410 -0.0626  0.2290
    1W        W52168  28.680  28.715   3.322  0.1372 -0.1018  0.1937
    1W        W52169   2.855  18.188   6.832 -0.2825  0.1021  0.0970
    1W        W52170  10.567  21.895   7.142 -0.1369 -0.1027  0.0093
    1W        W52171   8.372   1.561   0.114  0.0942  0.2720  0.1424
    1W        W52172  28.845  24.806   7.757  0.2630 -0.0121  0.0056
    1W        W52173  25.463   4.572   0.206 -0.3143 -0.0596 -0.3470
    1W        W52174  24.596   9.035   6.895  0.0042  0.0266 -0.2031
    1W        W52175  17.762  28.411   7.939  0.0972  0.0023 -0.0094
    1W        W52176   5.318  10.993   6.714 -0.1174 -0.0657 -0.1892
    1W        W52177  23.809  23.128   9.205  0.0503  0.0657 -0.1504
    1W        W52178   8.031  21.893   8.773  0.1235  0.2164 -0.2459
    1W        W52179  12.812  14.114   8.506  0.1036 -0.1351 -0.5030
    1W        W52180   0.647  29.361   1.554  0.3741  0.2941  0.1577
    1W        W52181  10.722  12.656   7.833 -0.0388 -0.1586  0.2122
    1W        W52182  23.003  15.361   6.436 -0.3071  0.2099  0.1017
    1W        W52183  10.658  21.156   2.230 -0.1413 -0.2528 -0.0289
    1W        W52184  15.008   4.384   7.719  0.0927 -0.0403  0.1803
    1W        W52185  20.620   2.266   2.620 -0.0933 -0.1412  0.0349
    1W        W52186   6.829   0.381   1.102  0.2040  0.0639 -0.1398
    1W        W52187  20.273  27.866   6.962 -0.0881  0.2687  0.0747
    1W        W52188   4.827  25.575   1.761  0.1307 -0.0408 -0.3005
    1W        W52189   3.180   0.886   3.368  0.2093  0.2290  0.3649
    1W        W52190   6.840   8.099   2.460 -0.0648 -0.1342  0.0713
    1W        W52191  28.803  14.070   1.398 -0.5440  0.3032  0.0900
    1W        W52192  19.320  29.721   1.035 -0.0675  0.4452 -0.1726
    1W        W52193  26.293  12.366   6.377  0.0698  0.0325  0.0944
    1W        W52194   9.215  20.220   7.296  0.0298 -0.1502  0.3129
    1W        W52195   9.438  14.896   8.005 -0.0852  0.0349 -0.5219
    1W        W52196   5.567   3.505   9.308  0.2409 -0.0702  0.2858
    1W        W52197   3.529  21.759   6.571  0.0650 -0.2717  0.2445
    1W        W52198  16.402  10.798   2.260  0.0666 -0.0830 -0.0429
    1W        W52199  11.855  19.799   7.181  0.0344 -0.1008 -0.2548
    1W        W52200  11.368  23.907   0.612 -0.0082  0.0982  0.0941
    1W        W52201  20.358   0.593   0.757 -0.0724 -0.2717 -0.1923
    1W        W52202   8.276  14.365   2.600 -0.0022  0.2294 -0.1678
    1W        W52203   0.508   9.253   2.474 -0.2662  0.0212 -0.0129
    1W        W52204  12.519  18.559   0.079 -0.1655 -0.3066  0.1248
    1W        W52205  29.948  28.446   7.805  0.1754 -0.0476  0.0692
    1W        W52206  19.838  26.458   7.693  0.1369 -0.0143 -0.0699
    1W        W52207  19.633   4.223   3.236  0.1395 -0.1259  0.0099
    1W        W52208  13.430   6.180   1.672  0.2874 -0.0154  0.3065
    1W        W52209  17.914   4.521   1.466  0.0459 -0.0492  0.0291
    1W        W52210  24.635  14.445   1.045  0.3601  0.0158  0.3115
    1W        W52211  30.051  14.112   9.135  0.1423 -0.0878  0.2579
    1W        W52212  11.930   6.046   9.217 -0.1656 -0.2971  0.4293
    1W        W52213  24.261   8.649   7.787 -0.0099 -0.3324  0.0280
    1W        W52214  16.240  11.228   1.294  0.1114  0.0355 -0.3308
    1W        W52215  24.785   6.441   7.502  0.0758 -0.0371 -0.3001
    1W        W52216  21.245   6.343   7.521 -0.1734  0.0832  0.2265
    1W        W52217   5.738   7.584   7.909  0.0468  0.0563  0.1738
    1W        W52218   2.215  22.362   9.079 -0.0579 -0.0345 -0.0352
    1W        W52219  11.071  20.192   7.997  0.3753  0.0230  0.0100
    1W        W52220  20.592   2.730   7.007  0.1452  0.1099  0.0210
    1W        W52221  20.316  17.747   6.713 -0.1111  0.1339 -0.0276
    1W        W52222  18.961  22.838   7.719  0.1828  0.1249  0.2663
    1W        W52223  10.692  18.897   8.984 -0.3586 -0.0120  0.0991
    1W        W52224   5.920   0.359   2.049 -0.1064  0.0221 -0.0422
    1W        W52225  19.330  23.005   1.973  0.1502  0.1282 -0.1191
    1W        W52226   0.411  17.536   7.928  0.2261  0.1507 -0.3982
    1W        W52227  26.713  18.138   0.139  0.1210  0.0894  0.1000
    1W        W52228  12.063  10.622   3.315 -0.0676  0.1117 -0.3573
    1W        W52229   8.629  13.896   0.249 -0.2599 -0.0862 -0.0136
    1W        W52230  21.850   7.622   2.341  0.1987 -0.1848 -0.3659
    1W        W52231  15.477  16.839   0.362  0.0569 -0.0731  0.1125
    1W        W52232  24.654  26.482   6.643 -0.2262  0.1393 -0.2883
    1W        W52233  25.268  24.236   8.586 -0.2333 -0.0072 -0.2266
    1W        W52234   7.680  19.920   1.189 -0.1450 -0.1991  0.0352
    1W        W52235  11.916   6.882   3.804 -0.0918 -0.2019  0.5061
    1W        W52236  13.501  11.015   8.030  0.0737  0.0885 -0.2360
    1W        W52237  23.932   7.849   2.259 -0.0985 -0.2151 -0.2554
    1W        W52238  27.627   4.765   1.828  0.0035 -0.0603 -0.0968
    1W        W52239  15.959   0.838   0.936 -0.1051 -0.0387  0.0154
    1W        W52240  14.271  29.953   7.973  0.0856  0.0956  0.0414
    1W        W52241  24.339   1.212   0.543  0.0648 -0.1465 -0.1906
    1W        W52242  29.217  29.843   2.143  0.1088  0.1696 -0.2794
    1W        W52243  16.820  26.024   2.585  0.1058  0.1683  0.1282
    1W        W52244  14.698  19.158   0.403 -0.0456 -0.0621  0.2014
    1W        W52245   2.076   5.412   1.662 -0.0055  0.0260 -0.1230
    1W        W52246  10.526   2.867   7.742  0.0320 -0.2194 -0.1303
    1W        W52247   5.556   2.164   7.840  0.2073  0.1121 -0.3350
    1W        W52248   9.544  15.791   7.144  0.2405 -0.1118  0.0979
    1W        W52249  28.132  14.343   9.090  0.1820  0.0719 -0.0355
    1W        W52250  28.236  29.484   7.356  0.0170  0.0155 -0.1224
    1W        W52251   4.996  16.514   7.505 -0.1168  0.0539 -0.1699
    1W        W52252  10.346  19.478   8.541  0.1480  0.2133  0.0000
    1W        W52253   8.103  25.137   8.546 -0.0865 -0.4790  0.0171
    1W        W52254   4.288  28.275   2.684 -0.1585 -0.1979  0.4527
    1W        W52255  14.556  18.940   1.959 -0.2789 -0.0464 -0.0349
    1W        W52256   9.163  20.075   7.783 -0.1593  0.1251  0.1405
    1W        W52257  19.059  27.878   1.614  0.2075  0.0123 -0.3132
    1W        W52258  27.363  20.801   7.943  0.2593 -0.1498 -0.0477
    1W        W52259   8.349   8.296   2.359 -0.1021 -0.2570 -0.0276
    1W        W52260   9.551  23.373   1.202  0.0611 -0.0487 -0.2073
    1W        W52261   4.106   9.232   8.960 -0.1248  0.3551 -0.0886
    1W        W52262  18.244  18.274   2.085  0.0643 -0.2658 -0.1790
    1W        W52263  21.960  16.729   0.144  0.1091  0.2231 -0.0399
    1W        W52264  17.508  12.313   0.980 -0.0855  0.0558  0.0991
    1W        W52265   7.776  29.327   0.996  0.0089 -0.0135  0.1795
    1W        W52266   8.709   4.009   8.360  0.1996  0.1178 -0.1132
    1W        W52267  10.557  14.741   0.090 -0.2629  0.0949 -0.0346
    1W        W52268  10.182  21.370   9.053 -0.1591 -0.1176  0.0219
    1W        W52269   2.670   1.560   0.624 -0.2114 -0.0939 -0.2937
    1W        W52270   5.594  15.900   9.192 -0.1123  0.1822 -0.3290
    1W        W52271  14.177  25.869   2.160 -0.1183 -0.1264 -0.1799
    1W        W52272  14.799   8.852   1.836 -0.0264 -0.0384  0.1463
    1W        W52273  14.369   0.954   0.452  0.3725 -0.0518  0.0594
    1W        W52274   2.666  21.075   5.614 -0.0036  0.0432 -0.0332
    1W        W52275  28.597   9.186   2.022 -0.0318  0.1110 -0.0223
    1W        W52276   8.858  22.458   1.696 -0.1375  0.1503 -0.0255
    1W        W52277   4.033   1.194   2.450 -0.1684 -0.1117  0.0812
    1W        W52278  21.981  23.417   7.369 -0.2203  0.4324  0.0623
    1W        W52279   1.052  11.418   5.393 -0.4376 -0.0627 -0.3241
    1W        W52280  12.533   9.237   0.825  0.2508 -0.2610 -0.1809
    1W        W52281  15.629  27.604   0.069 -0.2615 -0.0085  0.0278
    1W        W52282  10.153   6.914   1.237  0.0126 -0.0636 -0.1395
    1W        W52283  30.133  12.929   9.242 -0.1705  0.0581 -0.2859
    1W        W52284   2.424   8.190   0.789  0.0242 -0.0369  0.2527
    1W        W52285  27.572  11.230   8.674 -0.0175 -0.3717 -0.1432
    1W        W52286  17.039  16.193   7.361 -0.0120 -0.0236 -0.0064
    1W        W52287  24.633   9.673   7.841  0.3843  0.0816 -0.0295
    1W        W52288  29.714  16.568   9.077  0.0301 -0.0312 -0.1020
    1W        W52289  15.149   8.633   1.156  0.1424  0.1200 -0.1379
    1W        W52290  12.646  29.015   1.431  0.0359 -0.2562 -0.1948
    1W        W52291   1.815   5.851   1.570 -0.0989 -0.2324 -0.0053
    1W        W52292   6.001  25.416   9.380  0.2267 -0.0515  0.0420
    1W        W52293  21.022  23.199   1.419 -0.0839  0.1518 -0.2114
    1W        W52294  17.934  27.803   7.253 -0.0295  0.0023  0.0985
    1W        W52295   9.557  28.085   8.700 -0.2736 -0.1451 -0.1426
    1W        W52296  14.749  29.517   8.905  0.1411 -0.2644 -0.1155
    1W        W52297  26.857   5.754   0.257  0.1098  0.0160  0.1309
    1W        W52298   0.968  26.073   1.116  0.1345  0.3225  0.0201
    1W        W52299  12.339  18.876   7.042  0.0483  0.2135  0.2098
    1W        W52300  13.530  17.871   0.461 -0.0874  0.0021  0.1905
    1W        W52301  25.946  23.103   6.654 -0.1997 -0.0327  0.0783
    1W        W52302   2.271   1.184   2.869  0.0276  0.1598 -0.0320
    1W        W52303   4.369  23.869   1.355 -0.3334  0.0987 -0.1119
    1W        W52304  16.079   9.184   3.016 -0.0120 -0.0807 -0.1479
    1W        W52305  27.360  24.941   2.682  0.0358  0.0183  0.1513
    1W        W52306  17.798  10.411   9.263 -0.0669 -0.2628 -0.2269
    1W        W52307  24.033   2.473   7.194  0.1616 -0.2237  0.2350
    1W        W52308  14.432  24.484   8.161  0.0496 -0.0376 -0.1768
    1W        W52309  17.502   4.306   2.776 -0.0738 -0.0471  0.0208
    1W        W52310  28.358  21.789   7.151  0.0289 -0.1634 -0.1848
    1W        W52311   7.085   6.796   1.984  0.3330  0.0305  0.2481
    1W        W52312   8.850  10.340   3.831  0.0803 -0.4058  0.0798
    1W        W52313   7.643  13.704   6.777 -0.1381 -0.1108 -0.1582
    1W        W52314  22.226  13.780   6.860  0.2662  0.1933  0.0886
    1W        W52315  18.850  22.247   0.176  0.0309 -0.1242  0.2313
    1W        W52316   9.496  21.366   2.048 -0.1910 -0.0743 -0.1532
    1W        W52317   5.976  11.922   0.660  0.1443 -0.0511  0.1650
    1W        W52318  12.444   7.813   2.844  0.5774  0.2985  0.0452
    1W        W52319  10.477   9.238   0.767 -0.1785 -0.0562  0.0233
    1W        W52320  17.501   2.775   0.810 -0.0519  0.1118  0.3576
    1W        W52321  19.253   2.593   7.572  0.3384  0.0251 -0.0747
    1W        W52322   9.120  11.000   2.701 -0.2273 -0.0013 -0.1250
    1W        W52323  17.373   6.963   2.280 -0.2197  0.0374  0.2236
    1W        W52324  16.643   4.873   0.723  0.1571 -0.2032 -0.0009
    1W        W52325  20.212  13.248   8.981 -0.0813 -0.0430 -0.1242
    1W        W52326  19.560   4.061   2.720  0.0487  0.3007 -0.2994
    1W        W52327  10.098  25.210   2.100  0.2682 -0.2206  0.3212
    1W        W52328  25.143  13.630   1.210 -0.0590  0.0161  0.0039
    1W        W52329  10.981   1.405   8.535  0.2367  0.1934  0.1112
    1W        W52330  29.740   6.713   0.745  0.0172 -0.0099  0.0728
    1W        W52331   6.848  28.596   0.438  0.0615  0.0678 -0.1229
    1W        W52332  21.176  25.443   0.160  0.0947  0.0059  0.1397
    1W        W52333  26.526  22.666   8.265 -0.2614  0.0428 -0.0229
    1W        W52334  29.311  27.149   7.170  0.2412 -0.0110  0.0618
    1W        W52335  15.222  18.837   7.778  0.0687  0.3501  0.1913
    1W        W52336   5.463  26.466   9.398  0.2558 -0.2081 -0.1374
    1W        W52337   4.868   9.716   1.485  0.0281  0.1847 -0.2653
    1W        W52338  16.806  14.760   7.452 -0.0645 -0.1626 -0.2470
    1W        W52339   4.655   7.777   2.441 -0.4281 -0.1008 -0.3586
    1W        W52340   6.320  18.160   6.409  0.0542  0.1368 -0.1850
    1W        W52341   0.229   9.551   0.492 -0.0919  0.1534  0.1550
    1W        W52342  17.762  15.528   6.964 -0.0908  0.1380 -0.2010
    1W        W52343   0.660  24.226   7.297  0.1569 -0.0871 -0.0034
    1W        W52344   3.509   5.916   2.682 -0.0644 -0.0313  0.2160
    1W        W52345  26.739   2.846   9.400 -0.0515 -0.0578 -0.0370
    1W        W52346   1.120  19.003   9.107  0.0093 -0.1065 -0.0335
    1W        W52347  25.238  14.306   7.625  0.3101  0.3735  0.1757
    1W        W52348  29.775  23.322   1.105  0.2457 -0.5610 -0.0906
    1W        W52349   3.815  27.021   0.810 -0.1623  0.3100  0.2142
    1W        W52350  13.219  22.412   1.220 -0.0568 -0.0739  0.1416
    1W        W52351  23.526  21.129   8.406 -0.1941  0.1689  0.1751
    1W        W52352  25.646  29.768   0.131  0.2156  0.0007  0.0286
    1W        W52353  11.340  23.030   1.470 -0.0399  0.1256  0.0404
    1W        W52354  20.277  11.525   0.164 -0.1156  0.0663 -0.0058
    1W        W52355  29.424  16.719   6.706 -0.4383 -0.1744 -0.2032
    1W        W52356  23.683   8.302   9.102 -0.2254 -0.0355 -0.2156
    1W        W52357  19.678  27.566   3.169 -0.2438  0.2410 -0.0295
    1W        W52358  21.972  24.417   1.632  0.1263  0.3351  0.0538
    1W        W52359   5.647   5.754   2.509 -0.1136 -0.1453  0.1348
    1W        W52360   9.841  14.949   8.885 -0.3438  0.0330 -0.0884
    1W        W52361  26.521   4.126   1.176  0.1329  0.0371 -0.0488
    1W        W52362  14.696  29.158   7.326 -0.3227 -0.2217 -0.0124
    1W        W52363  25.924  13.930   8.694 -0.1315 -0.0098 -0.0922
    1W        W52364  12.719  14.241   1.612  0.0746 -0.0012 -0.1471
    1W        W52365  19.365  22.638   2.302  0.1600  0.1908 -0.0085
    1W        W52366   9.710   2.102   6.679 -0.3237  0.3018  0.1666
    1W        W52367   6.278  17.731   7.402  0.0296 -0.2448  0.2404
    1W        W52368  27.751  14.975   1.551 -0.1814 -0.0400  0.0680
    1W        W52369  29.236  25.080   8.642 -0.1586 -0.0874  0.0869
    1W        W52370  23.741  14.090   1.084 -0.0172 -0.1436  0.1602
    1W        W52371  22.237  28.272   7.507  0.5178 -0.0972 -0.1252
    1W        W52372   3.745  10.579   1.015 -0.1226 -0.1382 -0.3334
    1W        W52373  26.941   9.084   6.934  0.0195  0.1266 -0.0336
    1W        W52374   1.337   7.229   8.915  0.0140 -0.0389  0.1981
    1W        W52375   4.106   7.511   9.398  0.0913 -0.1058 -0.2007
    1W        W52376  14.005  26.204   7.627  0.4270 -0.0740  0.0869
    1W        W52377  29.127  23.456   9.074  0.4313  0.0378 -0.0678
    1W        W52378  24.851   5.495   7.941  0.2020 -0.1568 -0.2728
    1W        W52379  11.174  29.589   7.850  0.4550 -0.0885  0.1345
    1W        W52380   9.648   7.616   1.801  0.1783 -0.1582  0.4416
    1W        W52381   6.028  19.668   0.234 -0.1755 -0.0543  0.1897
    1W        W52382  20.250  16.406   8.181 -0.0328  0.4765  0.3007
    1W        W52383   3.177  28.082   2.553  0.0397  0.0114  0.2590
    1W        W52384  24.362  16.594   5.594 -0.0395 -0.0309  0.0485
    1W        W52385  16.918  18.385   0.532  0.0348 -0.0772  0.0663
    1W        W52386  12.244  25.290   1.570 -0.0291  0.1406 -0.0444
    1W        W52387  14.982  26.971   7.080  0.0856  0.0750 -0.1038
    1W        W52388  17.723   1.738   3.526 -0.0254  0.1229  0.0462
    1W        W52389  26.416  27.005   8.164 -0.0591 -0.1671 -0.0382
    1W        W52390   1.353  24.995   7.357 -0.0200  0.0692  0.2899
    1W        W52391  13.419  13.817   0.208  0.0160 -0.1185  0.0583
    1W        W52392  24.618   9.377   6.253  0.2295  0.1478 -0.0060
    1W        W52393  29.714  13.229   0.061 -0.0959 -0.2329  0.0849
    1W        W52394   6.940  25.389   0.546  0.1294  0.0341 -0.2743
    1W        W52395  14.669   3.255   0.485 -0.2344 -0.2114  0.2079
    1W        W52396   0.551  19.233   1.798  0.0404 -0.2980 -0.3255
    1W        W52397  13.424  23.194   1.298 -0.1507 -0.0964 -0.2010
    1W        W52398  20.201  13.657   1.740 -0.0915  0.1364 -0.1429
    1W        W52399  25.749  25.459   9.212 -0.0183 -0.2222 -0.0857
    1W        W52400  13.698  18.116   9.037  0.1086 -0.0537 -0.0614
    1W        W52401   2.454  16.054   0.993  0.1244  0.1576  0.0519
    1W        W52402   3.473  15.898   1.262 -0.1566  0.1822  0.3631
    1W        W52403  21.021  29.066   2.059 -0.4024  0.1139 -0.0336
    1W        W52404   4.078   8.810   2.345  0.0340  0.0454  0.1041
    1W        W52405  23.206  20.309   6.727  0.2425  0.1851 -0.1393
    1W        W52406  19.970   0.307   8.701  0.0647  0.0025  0.1196
    1W        W52407  28.654  23.542   2.431 -0.0807  0.0806  0.0493
    1W        W52408  13.631   6.999   3.247 -0.0265 -0.2512  0.1260
    1W        W52409  17.146   5.439   9.279 -0.1576  0.0223  0.0340
    1W        W52410  12.222  25.957   8.737  0.0444  0.2707  0.1152
    1W        W52411  10.406  18.537   7.466 -0.2250  0.4524  0.1029
    1W        W52412  26.679  28.482   0.060 -0.0584 -0.0004  0.0665
    1W        W52413   9.094  18.178   9.149  0.2260  0.1276 -0.3161
    1W        W52414  11.755   2.721   2.224 -0.0354 -0.1246 -0.2421
    1W        W52415  27.731  23.526   2.077 -0.2137  0.2322 -0.1160
    1W        W52416  10.193   4.940   2.639  0.2721 -0.0492 -0.1977
    1W        W52417   6.975  23.983   0.138 -0.2458  0.1554 -0.2574
    1W        W52418   2.278  12.408   8.035 -0.0716  0.1186 -0.1527
    1W        W52419  16.815  27.440   7.560 -0.0409 -0.1472  0.0456
    1W        W52420  10.489  23.611   7.456  0.0594 -0.4086  0.0265
    1W        W52421  18.620  24.519   9.230  0.0928 -0.0243  0.1827
    1W        W52422  28.132  22.644   1.989 -0.0833 -0.0963  0.1449
    1W        W52423  28.055  18.326   5.619  0.0750 -0.1570 -0.3135
    1W        W52424  23.622   3.673   9.103  0.1871 -0.2667 -0.4821
    1W        W52425  13.309  17.713   8.349 -0.0636 -0.0282 -0.1828
    1W        W52426  15.176  13.078   9.018  0.0809 -0.2092  0.0962
    1W        W52427  19.151  29.910   7.959  0.2635 -0.0303 -0.0747
    1W        W52428  11.849   3.902   1.516 -0.1293 -0.1645  0.0584
    1W        W52429  15.131  29.618   1.358 -0.2174 -0.0565 -0.0427
    1W        W52430   0.925  26.935   2.095 -0.1412  0.0426 -0.0731
    1W        W52431  23.422  27.116   7.805 -0.0232 -0.1794  0.0807
    1W        W52432   8.652  15.957   2.070 -0.0075 -0.2292 -0.3646
    1W        W52433  18.192  23.672   7.160  0.1903 -0.0364  0.2335
    1W        W52434   1.256   9.583   1.053  0.0998 -0.1974 -0.2894
    1W        W52435  24.099  25.573   2.018  0.2791  0.0649  0.2572
    1W        W52436  23.347  23.715   8.576  0.6156  0.0627 -0.2137
    1W        W52437  19.955  19.659   0.490  0.3219  0.2991 -0.1864
    1W        W52438  21.796   6.965   3.021  0.1237  0.0186  0.0046
    1W        W52439  24.563   6.315   0.970 -0.4417 -0.0109 -0.1646
    1W        W52440  20.693  17.789   9.041 -0.2549 -0.3866 -0.2512
    1W        W52441  10.406  11.424   7.380 -0.2527 -0.0494  0.0630
    1W        W52442   6.220   2.612   1.546 -0.1358  0.1184  0.0294
    1W        W52443  12.801  14.658   8.591 -0.0101 -0.1172 -0.0053
    1W        W52444   3.095   8.174   6.710  0.1452  0.0707  0.0412
    1W        W52445  11.248  11.335   7.994  0.0323  0.1464  0.0000
    1W        W52446  24.862  25.978   8.744 -0.0904 -0.1520  0.0067
    1W        W52447  22.142   4.263   7.734  0.1738 -0.0818 -0.0932
    1W        W52448  29.517   3.647   7.010 -0.0651  0.1224  0.1104
    1W        W52449  14.982  18.886   8.996  0.0265 -0.0403 -0.4283
    1W        W52450  29.317   1.474   6.828 -0.4846  0.1936  0.2981
    1W        W52451  12.167  16.474   7.953 -0.2581  0.0041 -0.2321
    1W        W52452  25.769  29.791   6.505 -0.0014 -0.2137 -0.0485
    1W        W52453   1.141   0.949   8.370 -0.0943  0.0375 -0.0545
    1W        W52454  14.272  26.792   8.784  0.1086  0.0582 -0.1558
    1W        W52455  14.483  12.496   1.344  0.2247 -0.0349 -0.1189
    1W        W52456  23.514  26.394   3.199 -0.1312  0.0492 -0.0804
    1W        W52457   2.369  20.272   7.771 -0.1552 -0.2237  0.2305
    1W        W52458  21.707   8.352   7.419  0.0144 -0.2842  0.1829
    1W        W52459  11.142  24.792   6.124 -0.0367 -0.2582 -0.2103
    1W        W52460   5.942  29.260   0.044  0.4918  0.1394 -0.1192
    1W        W52461   3.948  24.544   8.314  0.1925 -0.1070  0.0358
    1W        W52462  12.131  16.026   8.178  0.0857 -0.0982  0.0626
    1W        W52463   0.182  30.010   9.167  0.0862 -0.1022  0.2410
    1W        W52464  29.842   8.793   1.715  0.0399 -0.1693 -0.0998
    1W        W52465  27.856  20.078   7.400 -0.0166 -0.2352 -0.3406
    1W        W52466   1.681  16.581   1.088  0.0936 -0.0500 -0.0536
    1W        W52467  24.914  19.325   9.396  0.0804  0.0383 -0.0885
    1W        W52468  17.159   7.076   3.177  0.0345 -0.0223 -0.1962
    1W        W52469  13.316  27.648   7.501  0.0678 -0.0661 -0.0806
    1W        W52470  12.777   8.931   9.336  0.1386  0.2111 -0.0138
    1W        W52471  14.125   4.587   7.635  0.0620  0.0946 -0.0937
    1W        W52472  27.304   2.350   1.889 -0.2091  0.0778  0.0814
    1W        W52473  13.112  16.415   1.174 -0.2065 -0.1247  0.1993
    1W        W52474  17.852   4.714   1.974 -0.0477 -0.1193  0.1006
    1W        W52475  29.045  20.605   2.809 -0.0713 -0.0671  0.2036
    1W        W52476   5.113  25.005   5.384  0.0035 -0.0782 -0.1034
    1W        W52477  26.284  27.573   2.622 -0.3618  0.0337 -0.0152
    1W        W52478  18.127  28.008   7.686 -0.0534 -0.1100  0.0605
    1W        W52479  29.510  29.039   0.759 -0.0325 -0.2160  0.0291
    1W        W52480  22.909  23.853   8.417  0.0518 -0.4243 -0.3139
    1W        W52481  21.292   3.505   0.415 -0.0751 -0.0991  0.1429
    1W        W52482  11.156  22.021   7.766  0.1383 -0.2823 -0.0804
    1W        W52483  24.481  22.363   6.093  0.0763 -0.2223 -0.0111
    1W        W52484  22.569  19.718   2.666 -0.0149  0.0968  0.0694
    1W        W52485  18.736  25.099   2.777 -0.2090  0.0669 -0.1968
    1W        W52486   1.643  21.338   2.207 -0.1593  0.0305  0.2408
    1W        W52487  17.134  29.207   8.630  0.2548 -0.0209 -0.0272
    1W        W52488   0.239   4.047   7.298 -0.0546  0.0153 -0.1026
    1W        W52489   3.707  17.736   5.557 -0.0525  0.3219 -0.0081
    1W        W52490  19.921   0.255   9.259  0.0346  0.0715  0.0645
    1W        W52491  24.472  10.545   0.603  0.0717  0.0419 -0.0475
    1W        W52492  29.986  16.478   0.202 -0.2411  0.2520  0.1163
    1W        W52493  22.758  23.953   6.683  0.2369  0.2533  0.0581
    1W        W52494  28.461  17.194   1.166  0.0853 -0.0787  0.1264
    1W        W52495  28.050  28.739   2.097 -0.1815  0.3617 -0.0583
    1W        W52496  27.314  24.127   6.439  0.0209 -0.0343  0.0924
    1W        W52497  11.142  15.637   7.256 -0.1622  0.0205 -0.0836
    1W        W52498   3.990  23.544   8.622  0.0643  0.0396 -0.1004
    1W        W52499   9.282  28.497   9.057  0.0649 -0.0427 -0.1866
    1W        W52500  29.035   9.998   0.287  0.2137 -0.1300 -0.1682
    1W        W52501   8.349  22.821   0.045  0.2039 -0.1623  0.3016
    1W        W52502  25.955  26.639   1.423 -0.0648  0.1853  0.1929
    1W        W52503  26.684  22.453   6.686 -0.1681  0.0969  0.0751
    1W        W52504  13.701   0.281   1.870 -0.1112 -0.3221 -0.2796
    1W        W52505  11.898  28.928   2.552  0.1034  0.2096  0.2701
    1W        W52506   6.116  23.275   5.534 -0.2618 -0.0007  0.0198
    1W        W52507  20.703  28.565   8.282  0.0051 -0.0562 -0.0500
    1W        W52508  12.698  12.417   9.029  0.0758 -0.0221 -0.0540
    1W        W52509  22.804  19.501   6.712 -0.1437 -0.3157  0.1876
    1W        W52510  26.697   3.785   7.613 -0.1736  0.0861 -0.3590
    1W        W52511   7.883   6.396   3.750  0.2714  0.1230 -0.1546
    1W        W52512   1.831  10.190   1.736 -0.0506 -0.1997  0.0246
    1W        W52513   1.366   4.260   8.561 -0.1579  0.0875  0.0979
    1W        W52514  22.071  19.681   1.110  0.2292  0.2103 -0.3746
    1W        W52515  18.084  24.182   0.871  0.0146 -0.2239 -0.0718
    1W        W52516  14.022  12.136   0.888  0.0643 -0.0032  0.1657
    1W        W52517  11.939  10.828   0.965 -0.3217  0.0012  0.2157
    1W        W52518  16.926  27.571   0.294  0.0278  0.2193 -0.3102
    1W        W52519   0.309  13.702   0.889  0.0636  0.1499 -0.2996
    1W        W52520  19.274  22.418   7.827  0.1258 -0.1186 -0.1301
    1W        W52521  24.044   7.197   7.440 -0.1035 -0.2325  0.0724
    1W        W52522  13.046  29.092   3.156 -0.1846  0.1266 -0.0151
    1W        W52523   5.659  22.086   6.134 -0.1863  0.4285 -0.0940
    1W        W52524   6.340  26.569   9.142 -0.1657  0.1408  0.1733
    1W        W52525  27.708  21.507   7.693 -0.0131  0.2024  0.1307
    1W        W52526   4.958  18.854   5.070  0.1650 -0.0691 -0.0354
    1W        W52527  15.771  24.782   6.799  0.1131 -0.1538 -0.1305
    1W        W52528  12.283  26.622   1.599 -0.0164 -0.0044 -0.0824
    1W        W52529  15.450  17.117   8.556  0.1865 -0.0635  0.1002
    1W        W52530  14.930   1.252   7.558  0.1401 -0.1427  0.1509
    1W        W52531   5.629   8.616   9.319  0.0080 -0.3173  0.5492
    1W        W52532  21.771   9.999   7.884  0.0996  0.0943 -0.1113
    1W        W52533   4.304  24.241   9.168  0.2614  0.1658  0.0356
    1W        W52534   6.855  24.233   7.969  0.0337 -0.0690  0.0318
    1W        W52535   2.386  10.271   1.021 -0.5537 -0.2753 -0.2295
    1W        W52536  30.033   7.093   0.676 -0.1750 -0.3939  0.1166
    1W        W52537  10.630  21.042   0.311  0.0461 -0.0217  0.0815
    1W        W52538  26.813  11.782   8.379 -0.2670 -0.1068 -0.1422
    1W        W52539  22.123  18.513   7.972 -0.1769 -0.2494  0.2616
    1W        W52540   1.706  15.454   5.399  0.1223 -0.3746  0.3895
    1W        W52541  26.259  18.792   0.941  0.0354  0.1371  0.0275
    1W        W52542  29.683   9.783   6.124 -0.0033 -0.1000  0.2522
    1W        W52543  25.000  29.076   0.858  0.1379 -0.1051 -0.1504
    1W        W52544  27.309  21.458   1.679  0.0765  0.0573  0.2012
    1W        W52545  13.970   5.205   0.688 -0.1098 -0.1220 -0.1839
    1W        W52546  16.783  15.001   0.450  0.2964  0.2600  0.2942
    1W        W52547   2.962  12.021   7.795 -0.2152  0.1059 -0.2312
    1W        W52548   0.835   5.495   1.481  0.4042 -0.0141  0.2264
    1W        W52549  18.601  25.226   1.426  0.3217 -0.0378 -0.1327
    1W        W52550   8.138  26.614   8.739 -0.1589  0.1857 -0.0510
    1W        W52551   1.533   4.552   7.284  0.1222 -0.1554  0.4756
    1W        W52552  28.703   5.353   0.284  0.0411  0.3313  0.1000
    1W        W52553  29.072  11.694   7.371 -0.0610  0.2630  0.1660
    1W        W52554   7.509  27.205   1.299 -0.2831  0.4914 -0.0424
    1W        W52555   3.256  21.680   7.959 -0.1434 -0.2115  0.2767
    1W        W52556  28.387  12.671   7.822 -0.0525  0.1754  0.1279
    1W        W52557  30.097   3.162   1.984  0.0204  0.2397  0.0167
    1W        W52558   6.017   0.789   9.127 -0.3190  0.2492  0.0584
    1W        W52559  20.651  29.943   0.991 -0.1164  0.2680 -0.0481
    1W        W52560  20.303  21.883   2.062  0.2022  0.0096 -0.1544
    1W        W52561   5.278  12.511   0.111 -0.1757  0.2798  0.2518
    1W        W52562  23.086   3.537   1.361 -0.0678  0.0150 -0.0891
    1W        W52563  15.905   6.279   8.035 -0.0755  0.4676 -0.0533
    1W        W52564  13.309  12.530   9.023  0.4135 -0.0216 -0.1849
    1W        W52565  14.097   5.984   7.837 -0.3172  0.3903  0.2060
    1W        W52566  17.342  11.228   7.010  0.2688 -0.0068  0.3549
    1W        W52567  19.981  27.399   1.499  0.1808 -0.2696  0.0996
    1W        W52568   8.971  12.870   0.795 -0.0318 -0.0544  0.0718
    1W        W52569  16.878   7.748   1.862  0.5331  0.2019  0.0336
    1W        W52570   1.146   4.702   8.423  0.2471  0.3740  0.0933
    1W        W52571  18.684  20.505   8.724  0.0635  0.0459 -0.2547
    1W        W52572  12.935  27.060   8.541 -0.2103  0.1997 -0.0239
    1W        W52573   6.997  11.632   8.989  0.2263 -0.3357  0.2140
    1W        W52574   2.485  20.495   7.326 -0.1006  0.2363 -0.0198
    1W        W52575  15.103   8.377   9.386 -0.0158 -0.0775 -0.1738
    1W        W52576   6.945  15.379   0.334  0.3638 -0.6823 -0.4403
    1W        W52577  13.199   8.381   2.099  0.1226 -0.2133 -0.1471
    1W        W52578  15.426  13.520   8.348 -0.0594  0.0052 -0.2383
    1W        W52579  29.786   3.568   9.101 -0.1915 -0.1360 -0.0982
    1W        W52580   3.902  24.236   6.395 -0.4272 -0.4656  0.1845
    1W        W52581   3.424  24.799   1.436  0.0112 -0.0092 -0.1022
    1W        W52582  12.163   8.974   1.244  0.0415 -0.1070 -0.2247
    1W        W52583   6.847   8.338   7.895 -0.2626 -0.4240  0.1459
    1W        W52584   9.765  21.667   7.602 -0.0874 -0.0292  0.0415
    1W        W52585  23.022  11.958   6.457 -0.2397 -0.0234  0.2501
    1W        W52586  13.524  28.798   2.515  0.2569 -0.0626  0.1071
    1W        W52587  21.553  11.629   1.728 -0.1344  0.1237 -0.2510
    1W        W52588  16.359  22.112   8.882  0.0501  0.0497  0.0457
    1W        W52589  12.526   3.689   1.342  0.0970 -0.0814 -0.1501
    1W        W52590  10.689  10.580   9.398  0.1574 -0.0049 -0.0942
    1W        W52591  21.632  23.073   7.122  0.0809 -0.1763 -0.1663
    1W        W52592  14.453  10.334   8.474  0.2130 -0.2009 -0.0783
    1W        W52593  11.871   6.508   9.265 -0.0135  0.2638 -0.1484
    1W        W52594  29.341   6.479   8.992 -0.0046 -0.0979  0.1231
    1W        W52595   0.697  28.905   2.904  0.0660  0.0938 -0.0361
    1W        W52596   2.491   0.216   2.287 -0.2079 -0.1209 -0.0913
    1W        W52597  18.829  28.657   8.009 -0.3451 -0.0987  0.3113
    1W        W52598  28.628  11.615   5.977  0.1456 -0.0514  0.1282
    1W        W52599  17.206  29.114   2.215  0.1067 -0.2118 -0.0792
    1W        W52600   7.037  21.630   8.901 -0.4646 -0.0685 -0.2177
    1W        W52601   1.409  11.516   1.894 -0.1046  0.1215 -0.0275
    1W        W52602   5.803  17.873   7.392 -0.1273  0.0559 -0.1584
    1W        W52603   9.800  18.266   0.456 -0.0197 -0.0537  0.0458
    1W        W52604   0.693  15.917   0.126  0.1575 -0.0375 -0.0222
    1W        W52605   5.580  26.506   7.035 -0.1642  0.3335 -0.2362
    1W        W52606   0.475  18.281   1.501  0.0940 -0.0606  0.2039
    1W        W52607   3.641  12.739   8.849 -0.0495 -0.4663 -0.1320
    1W        W52608  26.868  24.356   6.496  0.3368  0.0402  0.5249
    1W        W52609  21.938   3.225   1.187 -0.0987 -0.1597 -0.0122
    1W        W52610  11.640  13.320   9.259  0.2571  0.1835 -0.1178
    1W        W52611   6.018   1.557   7.467 -0.0490  0.0042 -0.0140
    1W        W52612  17.176   8.845   1.860  0.0939  0.0986  0.0964
    1W        W52613  28.440  16.118   6.190  0.0689  0.0011  0.1173
    1W        W52614   5.711  16.170   6.872  0.0879 -0.2845  0.1568
    1W        W52615   5.668   5.121   9.172  0.2588 -0.0402  0.3210
    1W        W52616   0.942   0.394   3.013 -0.0360  0.1183  0.3282
    1W        W52617  30.019  14.504   6.553 -0.0066 -0.3843 -0.0615
    1W        W52618   3.595  28.993   2.698  0.1360 -0.2954  0.0903
    1W        W52619   1.827  23.178   1.187  0.1497  0.1951  0.4476
    1W        W52620   8.225   7.706   2.690 -0.1317  0.1918 -0.3180
    1W        W52621  21.349   6.617   2.878 -0.2591  0.0248  0.0011
    1W        W52622  23.969  15.947   0.674 -0.0098  0.0934 -0.0969
    1W        W52623  20.978  17.716   7.473  0.1642  0.2383 -0.2946
    1W        W52624   5.851  12.330   0.922 -0.0402 -0.1993 -0.0366
    1W        W52625   8.227   2.890   8.325 -0.0157  0.0469 -0.0780
    1W        W52626  15.370   2.928   1.275  0.0058  0.2889  0.1713
    1W        W52627   2.282  10.801   8.264 -0.0885 -0.0504 -0.0485
    1W        W52628   5.959  11.247   2.296  0.0926  0.0321 -0.2482
    1W        W52629   6.286  12.695   8.111 -0.2932 -0.0975 -0.1995
    1W        W52630  11.524   6.151   7.913  0.0033  0.0191  0.2387
    1W        W52631  26.286  25.822   1.678  0.1221 -0.0905  0.1769
    1W        W52632  13.345  22.224   2.072  0.3874 -0.2941  0.1206
    1W        W52633  23.628   8.935   8.370  0.1812 -0.1855 -0.2322
    1W        W52634  23.870  12.602   8.129 -0.6198 -0.3189  0.0838
    1W        W52635   4.938   7.680   7.325  0.2797  0.2879 -0.1887
    1W        W52636  22.790   2.419   1.030 -0.6041 -0.1767  0.3053
    1W        W52637  18.822  26.134   7.288 -0.1993  0.3086  0.0606
    1W        W52638  30.040   9.875   0.798 -0.2404  0.0657  0.1452
    1W        W52639  20.968  17.669   0.022 -0.2320 -0.2500  0.4083
    1W        W52640  23.397  26.871   2.279  0.0695  0.0986 -0.2560
    1W        W52641  23.996  20.533   2.087 -0.3322 -0.1234 -0.2533
    1W        W52642  23.373  24.828   6.446 -0.0854  0.1263  0.1056
    1W        W52643  21.598   3.917   0.817  0.1736  0.2880 -0.2048
    1W        W52644  26.390   8.481   6.622 -0.0881 -0.2288 -0.4595
    1W        W52645  14.715  17.677   6.820  0.1629  0.3004  0.0156
    1W        W52646   7.161  28.565   2.249  0.0347 -0.0965 -0.2886
    1W        W52647  18.621   3.564   0.654  0.0696 -0.3343  0.1040
    1W        W52648   1.360   8.777   2.496 -0.2389  0.1686 -0.0331
    1W        W52649  17.878  23.533   1.294 -0.2184  0.6195  0.0105
    1W        W52650  10.904   9.011   8.618  0.0184  0.2212 -0.1383
    1W        W52651  21.838   3.734   2.770 -0.4654 -0.0061  0.1319
    1W        W52652  29.023  21.803   8.559 -0.0731  0.0602  0.4891
    1W        W52653  11.550  13.983   0.410 -0.3080  0.3211  0.0172
    1W        W52654   5.825   3.157   1.701 -0.1255  0.2812 -0.0380
    1W        W52655  21.913   6.304   0.867  0.1685 -0.0453  0.0513
    1W        W52656   2.272  28.756   9.063  0.1206 -0.2280 -0.3182
    1W        W52657  12.333  22.036   2.308  0.2386 -0.3829  0.1708
    1W        W52658   1.327  13.876   5.877 -0.1850 -0.2148  0.3978
    1W        W52659   4.776  24.393   0.602  0.1294 -0.2175 -0.1313
    1W        W52660  18.876  17.743   8.920  0.0736  0.1002  0.1983
    1W        W52661   0.756   5.225   6.623  0.1297 -0.0959  0.1376
    1W        W52662  12.361  26.095   0.309 -0.0396  0.0502  0.1596
    1W        W52663  14.828  18.797   6.577  0.0845 -0.0807 -0.2867
    1W        W52664  26.173  17.605   6.860 -0.1149  0.1693 -0.1043
    1W        W52665  26.637  21.009   7.982  0.1281 -0.1740 -0.3382
    1W        W52666   6.343  20.320   8.339 -0.0615 -0.5617  0.0537
    1W        W52667  26.222  26.893   1.000 -0.1286 -0.0563 -0.0579
    1W        W52668  25.101  25.766   2.000  0.2236  0.0838 -0.1438
    1W        W52669   9.666  16.632   1.501 -0.0656 -0.1228 -0.1928
    1W        W52670   4.655   0.013   3.668  0.3380  0.0140  0.1021
    1W        W52671   0.175   8.159   5.777  0.1753 -0.0266  0.1376
    1W        W52672  12.590   6.126   2.674 -0.0404  0.2322  0.1955
    1W        W52673  23.930   7.197   1.152 -0.2187  0.0860  0.0086
    1W        W52674   3.487   4.282   8.417 -0.2357  0.3383  0.1876
    1W        W52675  15.130  11.503   1.629 -0.4025  0.1482  0.2657
    1W        W52676   7.815  22.770   1.262  0.1725  0.2406  0.0057
    1W        W52677  15.758  28.693   2.025  0.1234 -0.0041  0.1611
    1W        W52678  13.444  12.280   2.494 -0.0219 -0.1241  0.0994
    1W        W52679  26.074   8.863   7.593  0.0353 -0.0946  0.0812
    1W        W52680  16.024  28.166   1.242  0.1371 -0.1561  0.1739
    1W        W52681  27.159  16.946   8.551 -0.2025  0.0009  0.1295
    1W        W52682  10.072  25.043   1.076  0.0975  0.1773 -0.2766
    1W        W52683  23.519  25.165   7.925  0.0243  0.1622  0.1655
    1W        W52684   2.495   5.512   0.946  0.1212  0.1143  0.0380
    1W        W52685   7.968  15.913   7.545 -0.0399 -0.0869  0.3188
    1W        W52686   1.595  14.036   7.599 -0.0420  0.1370 -0.0604
    1W        W52687  17.950  26.576   0.198  0.0880  0.0703 -0.1055
    1W        W52688  26.783  12.689   6.558 -0.1217  0.0158 -0.1850
    1W        W52689   3.072  20.902   6.241 -0.2499 -0.0512 -0.0406
    1W        W52690  19.740  11.256   0.179 -0.3443 -0.1431  0.2260
    1W        W52691  28.636  24.607   6.687  0.0423  0.0322 -0.1108
    1W        W52692  21.273  14.038   7.236 -0.0024  0.2212  0.0249
    1W        W52693   8.602   8.533   8.051 -0.1735 -0.3725 -0.0427
    1W        W52694   1.370   2.896   1.674 -0.0591 -0.0037 -0.0763
    1W        W52695  13.989  20.464   8.505  0.1815 -0.2527 -0.1440
    1W        W52696  29.413   1.984   1.793 -0.5273 -0.4459 -0.0956
    1W        W52697   3.171  15.881   7.065  0.1175 -0.0375  0.0624
    1W        W52698   2.612  27.410   7.117  0.1271  0.0655  0.1721
    1W        W52699  23.496  18.714   8.591 -0.0167 -0.1537 -0.0763
    1W        W52700  24.629  23.468   7.608 -0.1922  0.2687 -0.1920
    1W        W52701  22.548   3.228   2.793  0.1929 -0.1216 -0.1927
    1W        W52702   0.342   3.393   2.357 -0.4804 -0.0484  0.1975
    1W        W52703  16.074  25.901   8.114 -0.2278 -0.2748  0.1001
    1W        W52704  11.069   2.851   9.378  0.1622  0.3450  0.0897
    1W        W52705  19.610   6.998   0.956  0.1919  0.0993 -0.0362
    1W        W52706   0.366   8.722   6.009  0.0478  0.2414  0.2850
    1W        W52707  27.318   5.357   2.371 -0.3733  0.0977  0.1035
    1W        W52708  28.045  14.262   8.062 -0.0397  0.2347  0.5814
    1W        W52709  15.138   8.427   0.518  0.3099 -0.2612 -0.2105
    1W        W52710  24.352   9.964   1.907  0.1327  0.2508 -0.3749
    1W        W52711  17.308  14.201   7.011  0.1229  0.4570 -0.2005
    1W        W52712   2.189  12.872   6.430 -0.1114  0.2242  0.0142
    1W        W52713   0.025  21.184   1.143  0.3877  0.0291 -0.0608
    1W        W52714  24.629   9.552   6.790  0.0255  0.2582 -0.2500
    1W        W52715   8.733  24.057   2.017 -0.1040  0.0473  0.0388
    1W        W52716   1.730   4.314   3.183  0.0307  0.0137  0.0176
    1W        W52717   7.895   8.003   2.995  0.1640  0.2928  0.2925
    1W        W52718   9.465   3.327   1.505  0.0842  0.3935  0.1377
    1W        W52719  23.047  26.134   7.035 -0.0851 -0.1715 -0.1502
    1W        W52720   4.789  29.366   8.054  0.2730 -0.0318  0.0835
    1W        W52721  24.972  27.100   2.532  0.0150  0.3145  0.0302
    1W        W52722   2.419   8.723   8.434  0.1483 -0.1683 -0.3734
    1W        W52723   9.601  24.754   7.990  0.1926 -0.2110  0.2696
    1W        W52724  18.299   4.311   8.796 -0.1380  0.0217  0.2058
    1W        W52725  11.512   6.100   2.121  0.0764  0.0146  0.0234
    1W        W52726   4.292  14.733   1.363 -0.1186 -0.2015  0.0558
    1W        W52727  21.770  28.345   1.796 -0.2497 -0.0330 -0.1921
    1W        W52728   1.620  28.639   1.929  0.0578 -0.2306  0.0960
    1W        W52729  17.787   0.109   2.447 -0.0444  0.1833  0.0530
    1W        W52730   6.556  22.752   9.348 -0.0891 -0.0859  0.3299
    1W        W52731   0.436   9.084   6.884 -0.1471  0.0006  0.3276
    1W        W52732   4.459   8.348   6.274 -0.1007 -0.0043 -0.1461
    1W        W52733  28.702  30.069   2.270 -0.1032 -0.0521 -0.0498
    1W        W52734   2.762  18.660   7.299 -0.1015  0.3808 -0.0329
    1W        W52735  24.259  22.345   6.688 -0.1263  0.1616 -0.1066
    1W        W52736   9.419   0.222   1.817  0.1836  0.1053  0.1707
    1W        W52737   9.475   3.541   9.163  0.3119  0.2032 -0.3093
    1W        W52738   7.222  23.232   6.927 -0.1068  0.0018 -0.2427
    1W        W52739   4.987  20.673   0.233 -0.1966  0.0970  0.2768
    1W        W52740  10.942  28.725   2.134 -0.1433 -0.1216 -0.0259
    1W        W52741  22.639   1.004   1.181 -0.3121 -0.0576  0.2995
    1W        W52742   0.248  19.168   6.377  0.1690  0.2658  0.0228
    1W        W52743  16.346  22.233   1.508  0.2712  0.2574  0.0362
    1W        W52744  24.339   6.246   2.010  0.3419  0.0095  0.0684
    1W        W52745  12.353   9.124   9.133  0.0836  0.1303 -0.1673
    1W        W52746   0.787  14.346   7.462 -0.2050  0.0695 -0.0512
    1W        W52747  22.038  10.089   8.277  0.0445  0.3370 -0.3542
    1W        W52748  19.498  26.475   2.394 -0.1337  0.1581  0.1918
    1W        W52749   5.945  21.173   1.578  0.0711 -0.2153  0.0238
    1W        W52750  18.980   3.200   7.652 -0.1489  0.0450  0.0858
    1W        W52751  16.538   7.685   1.432 -0.0261  0.3740  0.1114
    1W        W52752   2.737   4.618   6.878 -0.1576  0.1222  0.3861
    1W        W52753  15.301   7.519   0.881 -0.0152 -0.0099 -0.0992
    1W        W52754  13.137  27.772   0.990  0.2122  0.0347  0.0110
    1W        W52755  20.471  20.490   7.052  0.0010  0.4259 -0.1247
    1W        W52756  14.056   4.538   8.873  0.0344 -0.1524  0.3278
    1W        W52757  23.376  16.220   8.036 -0.3727  0.0191 -0.0893
    1W        W52758   6.618   6.259   7.544 -0.0398 -0.0854 -0.0155
    1W        W52759   9.068  26.074   2.428  0.2488  0.0223 -0.0102
    1W        W52760  21.687   7.179   1.123 -0.0272 -0.2342 -0.1327
    1W        W52761   9.230  21.468   2.462  0.1254 -0.3385 -0.0452
    1W        W52762  14.139   5.924   3.395 -0.1613  0.0362  0.0667
    1W        W52763  18.024  25.988   2.096 -0.2887 -0.1018  0.0411
    1W        W52764  23.596  19.496   0.885  0.3623 -0.2070 -0.1301
    1W        W52765  24.057  11.751   0.146  0.1012  0.2329 -0.2617
    1W        W52766  19.491  23.951   2.731 -0.3134 -0.1316 -0.3097
    1W        W52767   1.573  15.183   7.791 -0.0013  0.0439  0.1018
    1W        W52768   2.846  12.404   5.725  0.0096  0.0940  0.2496
    1W        W52769  28.001  21.474   8.115  0.2473  0.1239 -0.0028
    1W        W52770  24.525  29.779   9.399  0.2621  0.0409 -0.0628
    1W        W52771   4.698   1.438   7.074 -0.0747  0.4396 -0.1121
    1W        W52772   0.836  29.384   8.674 -0.1780 -0.0545 -0.0131
    1W        W52773  22.771  12.795   1.251 -0.0795 -0.4252 -0.1989
    1W        W52774  14.085   3.774   8.649 -0.0899  0.0019 -0.2238
    1W        W52775  23.734   7.574   1.754 -0.2072 -0.1002  0.0342
    1W        W52776  22.086  29.864   2.748  0.0758 -0.1743 -0.0677
    1W        W52777   8.532   2.029   9.299  0.0582  0.1101  0.0099
    1W        W52778  26.296  27.467   9.121  0.0692  0.1101  0.3653
    1W        W52779   7.291  25.638   0.859  0.0580  0.2599  0.0355
    1W        W52780  23.545   9.427   7.119  0.1002 -0.0275 -0.0343
    1W        W52781   0.227  21.464   6.507  0.2072 -0.4164  0.0466
    1W        W52782  17.614  12.022   8.843 -0.4412 -0.0789 -0.1837
    1W        W52783   6.927  20.436   6.935 -0.5082 -0.1020  0.0539
    1W        W52784  19.471  20.822   1.264 -0.1561  0.1235 -0.0998
    1W        W52785   2.548  12.723   8.322 -0.1309 -0.0338 -0.0422
    1W        W52786   5.563  12.971   0.227 -0.2547  0.2154 -0.1199
    1W        W52787   5.133   8.916   8.700  0.0841 -0.3164 -0.1925
    1W        W52788  26.744  13.447   0.596 -0.0399  0.6460 -0.0162
    1W        W52789   1.832   2.643   8.241  0.1252  0.1304  0.1542
    1W        W52790  26.631  25.701   9.147  0.0307  0.1406 -0.3403
    1W        W52791  27.151  10.840   9.010  0.0157 -0.0059 -0.2070
    1W        W52792  24.305  13.154   0.053 -0.1331  0.3600  0.0434
    1W        W52793   5.253  23.544   8.498  0.0686 -0.2592 -0.1564
    1W        W52794  21.088  22.304   2.626  0.0587 -0.0070 -0.3143
    1W        W52795  24.988   4.560   6.628  0.1604 -0.1539  0.1525
    1W        W52796   4.063  19.268   7.660  0.1215 -0.1256 -0.0278
    1W        W52797   5.663   9.035   2.056  0.0143 -0.2176 -0.1199
    1W        W52798   7.891  13.141   7.533 -0.0432 -0.1122 -0.0066
    1W        W52799  20.219  27.922   7.535  0.2703 -0.2235 -0.1093
    1W        W52800   5.215  17.492   6.703  0.2278 -0.1314  0.0149
    1W        W52801  20.007   8.207   2.078  0.1134 -0.1505  0.2226
    1W        W52802   4.334   0.893   4.011 -0.2211 -0.0022  0.0570
    1W        W52803  13.402   3.552   3.132  0.0078 -0.0602 -0.4102
    1W        W52804  25.405  15.875   9.345 -0.0215 -0.1845 -0.2076
    1W        W52805  28.273  29.895   0.340 -0.2026  0.1817  0.2947
    1W        W52806  23.511  20.459   0.039 -0.1435 -0.3068 -0.0808
    1W        W52807  18.610   2.322   7.781 -0.2683  0.0272 -0.3563
    1W        W52808  10.385  12.844   0.886  0.3922  0.0635 -0.1830
    1W        W52809   2.462  16.746   6.462  0.1042 -0.0146  0.0939
    1W        W52810  23.918  13.202   7.470  0.1013  0.0383 -0.0385
    1W        W52811  25.957  29.822   8.926 -0.0316 -0.0024 -0.0952
    1W        W52812   3.293  20.431   0.805 -0.0161 -0.0666 -0.1736
    1W        W52813   0.587  22.326   0.635  0.0215 -0.2598  0.1075
    1W        W52814  22.414  16.765   1.549  0.2457  0.1967  0.1108
    1W        W52815  21.019  17.395   7.912 -0.0482 -0.0811 -0.1989
    1W        W52816  15.275   1.522   7.822 -0.1780 -0.0347 -0.1167
    1W        W52817   1.833  22.735   0.075  0.1219  0.3411 -0.0410
    1W        W52818  15.246  14.406   0.502  0.0277  0.0238 -0.0826
    1W        W52819  21.547  13.188   8.777 -0.1856 -0.1277 -0.2169
    1W        W52820  11.935   8.754   1.648 -0.0181  0.1572  0.1177
    1W        W52821  15.881  25.508   8.986 -0.1717  0.0710 -0.3794
    1W        W52822  18.862  14.287   1.132  0.3986 -0.1315  0.0572
    1W        W52823   4.302  29.322   3.209 -0.0355  0.0488 -0.3924
    1W        W52824   7.322  20.017   7.723  0.3451  0.2202 -0.3358
    1W        W52825   9.469  11.658   9.094  0.2279 -0.0077 -0.0330
    1W        W52826   1.925  19.317   7.112 -0.0435  0.1743  0.0659
    1W        W52827  24.948  26.911   8.534  0.0194  0.1382 -0.0558
    1W        W52828   0.590  27.519   8.402  0.1431  0.2990  0.0579
    1W        W52829  18.573  22.682   7.404  0.2428  0.0020  0.3702
    1W        W52830   5.209  23.108   5.275  0.0127 -0.0715  0.3001
    1W        W52831  29.482  13.749   9.217  0.2158 -0.0285  0.0668
    1W        W52832   0.624  17.052   5.298 -0.0599  0.1893  0.2830
    1W        W52833  11.410  13.221   0.909  0.0234 -0.1820  0.1536
    1W        W52834  10.338  18.412   8.999 -0.0743 -0.1268  0.2216
    1W        W52835  12.185   7.221   1.956  0.2172 -0.0541  0.1977
    1W        W52836  19.011   6.543   2.564  0.3370 -0.4403  0.3712
    1W        W52837  14.916  24.167   7.012 -0.0367 -0.1187  0.1377
    1W        W52838   1.408  20.997   6.729 -0.1895 -0.5461  0.1147
    1W        W52839  22.264  26.723   1.863  0.1248  0.1104 -0.1386
    1W        W52840   6.136  18.831   0.725  0.1071  0.2482  0.2212
    1W        W52841  21.043  16.137   0.744  0.1829 -0.2910 -0.0365
    1W        W52842   6.191  28.567   1.855 -0.3527 -0.0048  0.2256
    1W        W52843  28.660   0.306   7.978 -0.2122 -0.4066  0.2572
    1W        W52844  21.073  29.016   8.349 -0.1104  0.0685 -0.2509
    1W        W52845  18.724  28.783   6.998 -0.0141  0.0394 -0.0651
    1W        W52846   2.118  22.878   8.486  0.1664 -0.0507 -0.0120
    1W        W52847  30.127  16.199   9.003 -0.3651 -0.1636 -0.0495
    1W        W52848  10.836   3.333   2.480  0.5126 -0.1135 -0.0126
    1W        W52849  23.250  22.533   6.403 -0.1598  0.0306  0.0775
    1W        W52850  16.698  17.533   7.295  0.2123 -0.0302 -0.1018
    1W        W52851  22.487   6.643   0.957 -0.1492  0.2339 -0.0069
    1W        W52852   4.939   4.304   8.288 -0.1426 -0.1710 -0.4024
    1W        W52853   9.121  10.547   2.921 -0.4575 -0.3205 -0.2803
    1W        W52854  13.909  29.471   0.057 -0.1163  0.1475 -0.2802
    1W        W52855  17.753  17.579   1.505  0.1086  0.2850 -0.0825
    1W        W52856  14.704  21.895   2.046 -0.2417  0.0095  0.1807
    1W        W52857   8.595  24.503   0.523  0.0288  0.1211  0.2210
    1W        W52858  14.518  17.705   0.167 -0.0083 -0.1837  0.0193
    1W        W52859  25.201  18.571   1.406  0.0308 -0.1820  0.0128
    1W        W52860  23.235  27.164   8.265 -0.1957 -0.0139  0.1199
    1W        W52861  27.226  13.835   1.297 -0.1078 -0.1672  0.0124
    1W        W52862   5.474  27.686   0.913 -0.2566  0.1638  0.1269
    1W        W52863   6.506  13.917   2.339 -0.0559 -0.1403 -0.1260
    1W        W52864   3.142  12.023   5.911 -0.0760  0.2354 -0.0567
    1W        W52865  25.041  15.478   1.794 -0.3711 -0.1962 -0.2181
    1W        W52866   2.335  24.469   5.304 -0.4510  0.0685 -0.2592
    1W        W52867   8.632   3.263   8.894  0.2670  0.2473  0.0903
    1W        W52868   1.703   0.106   1.196 -0.1464 -0.0027  0.2447
    1W        W52869   0.827   9.108   0.252  0.0938 -0.2050  0.2549
    1W        W52870  21.386   8.478   2.044 -0.0358  0.2180 -0.1395
    1W        W52871   0.197  10.061   0.337 -0.1136  0.1070 -0.0554
    1W        W52872   7.586  23.231   7.301  0.0621 -0.1160  0.1828
    1W        W52873  21.857  10.449   9.193  0.0410  0.0173  0.1860
    1W        W52874   1.636  26.847   6.913  0.0689  0.3057 -0.2182
    1W        W52875  13.158  28.177   6.901  0.0144  0.1208 -0.1140
    1W        W52876   2.290  22.147   6.697  0.0312  0.0810 -0.0751
    1W        W52877  29.222   3.067   1.451 -0.1068 -0.1869  0.5308
    1W        W52878  22.529  24.646   0.457 -0.1556  0.2000 -0.1272
    1W        W52879  27.199  12.339   6.537 -0.1440 -0.0469  0.1022
    1W        W52880  16.387  10.332   2.795  0.0332  0.2370  0.1899
    1W        W52881   6.679  22.569   6.194 -0.2146 -0.1565  0.0035
    1W        W52882  28.501  11.976   6.676 -0.1507  0.1852  0.0943
    1W        W52883   7.521  13.845   0.540  0.1748 -0.1582  0.2141
    1W        W52884   3.129   9.356   2.387  0.0955 -0.3271 -0.0680
    1W        W52885  29.143  26.743   0.504  0.0126 -0.0190  0.1986
    1W        W52886   9.734  16.813   7.880  0.0156  0.0746  0.1685
    1W        W52887  16.017  22.400   7.325 -0.0631  0.0539  0.2204
    1W        W52888  11.548  11.705   1.287 -0.1988  0.1702 -0.3035
    1W        W52889   6.540   5.194   9.089 -0.2826 -0.0974  0.1984
    1W        W52890  28.389  28.968   0.566  0.3414  0.1324  0.0105
    1W        W52891  13.300   8.875   3.127 -0.2832  0.1727 -0.1636
    1W        W52892   5.618   7.034   3.407 -0.2223  0.1478 -0.1398
    1W        W52893  10.145  26.579   2.381 -0.2678 -0.0815 -0.0383
    1W        W52894  24.076   0.888   6.458 -0.2406  0.0105  0.0896
    1W        W52895  18.054  10.733   1.109  0.0259  0.0899  0.3396
    1W        W52896  17.877  10.007   1.541  0.0076 -0.1693  0.0345
    1W        W52897  10.053  15.986   0.435  0.3616 -0.0097  0.2406
    1W        W52898  20.226  10.539   7.482 -0.1109  0.2681  0.0781
    1W        W52899  25.841  18.963   6.764  0.2621  0.2439 -0.1972
    1W        W52900   7.949  19.439   2.239 -0.1060  0.0332  0.0776
    1W        W52901  20.849  29.492   1.353  0.2431  0.0676  0.0753
    1W        W52902   0.693  25.116   6.834  0.3556  0.0433  0.0942
    1W        W52903  14.018  27.749   2.390  0.1188  0.0988 -0.1624
    1W        W52904   4.584  13.397   2.610 -0.2204 -0.3328  0.1400
    1W        W52905  28.530   7.960   8.164  0.0821 -0.0929  0.0477
    1W        W52906  19.133  21.289   0.656  0.1916 -0.1815  0.1071
    1W        W52907   7.228  13.935   0.072 -0.0244 -0.0401 -0.1195
    1W        W52908  26.918   8.540   2.091 -0.2498  0.3619 -0.1933
    1W        W52909  23.837   1.954   7.028 -0.0802 -0.2233 -0.0078
    1W        W52910  23.011   4.700   0.058  0.2183  0.0919  0.0223
    1W        W52911  16.871  25.302   1.770 -0.2160 -0.2006 -0.0376
    1W        W52912   8.027  20.351   8.484  0.1252 -0.2801  0.0448
    1W        W52913  11.968  17.811   1.353 -0.1371  0.0740 -0.3787
    1W        W52914  12.605  25.505   8.072  0.0521  0.1634 -0.0794
    1W        W52915   5.197  23.807   7.606  0.1225  0.0891 -0.2374
    1W        W52916   2.357   8.193   1.476  0.0797  0.2029 -0.4030
    1W        W52917   8.006  18.955   1.986 -0.0089 -0.1710  0.0024
    1W        W52918   9.578  24.621   0.258  0.3929  0.1965  0.3291
    1W        W52919  20.307   9.078   0.943 -0.2173  0.1086  0.1229
    1W        W52920  20.874   4.909   9.262  0.3345  0.1044  0.1890
    1W        W52921   8.278   7.513   1.511 -0.1151  0.0860  0.3776
    1W        W52922  23.232  27.724   1.270 -0.1628 -0.0051 -0.1697
    1W        W52923  18.459  23.144   7.672 -0.0351  0.0788  0.0470
    1W        W52924   5.111  16.303   2.286  0.5748 -0.1211  0.0430
    1W        W52925   1.808   6.236   0.273  0.1120 -0.3531 -0.5046
    1W        W52926  14.659  26.996   9.180 -0.0352 -0.0511 -0.0560
    1W        W52927  23.143  29.671   9.306  0.2282 -0.1501 -0.5638
    1W        W52928  25.519   8.754   2.149  0.0357  0.2262  0.1173
    1W        W52929   0.642  14.934   8.112  0.0804 -0.0133 -0.2319
    1W        W52930  12.309   3.265   2.528  0.0526 -0.0346 -0.0807
    1W        W52931  28.774  25.924   7.449 -0.1230 -0.0173  0.0058
    1W        W52932  23.653   2.048   2.614 -0.0713  0.0296  0.2225
    1W        W52933   7.686   9.466   1.938  0.1150 -0.0833 -0.2935
    1W        W52934  27.577  10.991   8.006 -0.1656 -0.0646  0.0273
    1W        W52935  18.151   2.396   3.273 -0.1145 -0.1977  0.2970
    1W        W52936  16.372   4.261   8.776  0.1290  0.2474  0.1147
    1W        W52937   2.886  17.855   8.958 -0.4603 -0.3049  0.4329
    1W        W52938  16.871   3.275   0.814 -0.0575  0.2060 -0.1441
    1W        W52939  22.211  26.531   0.101  0.0200  0.2896 -0.0135
    1W        W52940  28.287  19.550   2.433  0.1930  0.0387 -0.1749
    1W        W52941  20.988  28.286   8.607  0.4818 -0.0633  0.2243
    1W        W52942  22.459   8.680   1.765 -0.2421  0.3971  0.0601
    1W        W52943  27.026   2.088   2.715  0.0354  0.0448  0.3269
    1W        W52944   1.854  12.353   6.625 -0.0585  0.0052 -0.1005
    1W        W52945   6.362  20.291   8.841 -0.1090  0.1761 -0.1653
    1W        W52946  23.536  22.457   0.083  0.0226 -0.0805  0.0390
    1W        W52947  25.155  12.288   0.683 -0.2632  0.1922 -0.3085
    1W        W52948   6.649  22.889   6.564  0.0351  0.0501  0.0848
    1W        W52949   7.586  29.884   0.122 -0.0154  0.3100 -0.0275
    1W        W52950  10.759   7.396   7.745 -0.2232  0.3895 -0.0503
    1W        W52951  10.527   2.090   1.298 -0.0732 -0.1940  0.0610
    1W        W52952   6.951  11.850   0.805 -0.2408  0.0952 -0.2402
    1W        W52953  16.968  30.079   2.650  0.3769 -0.0856  0.0538
    1W        W52954   2.597  28.480   9.286  0.0555  0.0559 -0.0042
    1W        W52955  25.143  16.232   6.375 -0.0909  0.2326  0.2238
    1W        W52956  29.034  20.321   6.087 -0.0846  0.3861 -0.0277
    1W        W52957  26.560  16.221   0.158  0.2658  0.3202  0.0579
    1W        W52958  14.582   0.754   2.681 -0.0972  0.1372 -0.1227
    1W        W52959  18.955  10.692   6.851  0.3047 -0.2257  0.2485
    1W        W52960  12.496  27.072   6.722  0.2174  0.0546  0.2564
    1W        W52961   2.904  18.839   6.114 -0.1984  0.2805 -0.0262
    1W        W52962   4.685  20.448   7.077 -0.0314  0.2822 -0.0331
    1W        W52963   2.258  22.070   1.517  0.4147  0.2420 -0.0748
    1W        W52964  12.339  14.356   6.801 -0.0016 -0.0936  0.2400
    1W        W52965   9.222  29.124   0.281  0.1712  0.4349 -0.2414
    1W        W52966   7.200  11.008   1.011 -0.1620  0.1916  0.0320
    1W        W52967  23.028  11.615   6.001  0.1523 -0.0863  0.2358
    1W        W52968   1.733  19.636   5.836 -0.1697 -0.1178 -0.0396
    1W        W52969  24.484  16.538   9.389  0.0096 -0.0738 -0.0077
    1W        W52970   6.471  25.200   7.790 -0.1388  0.2150  0.1281
    1W        W52971   8.882  24.100   0.199  0.0110  0.0108  0.0551
    1W        W52972  11.013  20.669   7.657  0.0107  0.1352  0.2312
    1W        W52973  15.588  25.750   8.119  0.1958  0.0050 -0.1755
    1W        W52974   5.092  24.347   0.996 -0.2446  0.2369 -0.3733
    1W        W52975  17.390  11.969   7.551 -0.2354 -0.1883 -0.2540
    1W        W52976  19.195  18.823   9.089 -0.0522 -0.2795 -0.2382
    1W        W52977  27.114  26.391   8.709 -0.0575 -0.0691  0.2498
    1W        W52978  19.014  25.488   1.441 -0.1367  0.1950  0.3053
    1W        W52979   6.628   4.045   8.901 -0.1617  0.0795 -0.3367
    1W        W52980  26.817   6.290   2.192 -0.0133  0.3391  0.1272
    1W        W52981   3.612  22.630   6.775  0.1238 -0.2265 -0.0069
    1W        W52982  19.932  12.254   7.263  0.4163  0.1489  0.1925
    1W        W52983  10.558   0.376   2.336 -0.0635  0.0197 -0.1194
    1W        W52984   1.024  22.164   1.217 -0.3092 -0.0124  0.0866
    1W        W52985  18.324  22.203   7.400  0.0494  0.0653  0.3259
    1W        W52986   1.217   4.918   2.954 -0.1584 -0.1583 -0.2489
    1W        W52987  19.706  27.529   2.296  0.1342 -0.3741 -0.1941
    1W        W52988   9.473   8.228   0.498 -0.1830  0.0049  0.1473
    1W        W52989   9.049   7.506   2.272 -0.0266 -0.0576  0.0148
    1W        W52990  21.842   0.357   8.716  0.0976 -0.1137 -0.0883
    1W        W52991   7.464  19.027   6.209  0.0674 -0.1961 -0.0431
    1W        W52992  23.937  22.219   2.201  0.0293 -0.0363 -0.2527
    1W        W52993  17.731  21.764   2.246  0.1129  0.2199 -0.3311
    1W        W52994  28.825   3.172   5.904  0.0199 -0.0481 -0.0803
    1W        W52995   0.740  25.215   8.501  0.1546 -0.3729 -0.3464
    1W        W52996  13.909  10.708   0.362 -0.2261 -0.3975 -0.3671
    1W        W52997   2.119  24.976   1.111 -0.0984 -0.1181 -0.1793
    1W        W52998  14.250   8.900   3.162  0.1314  0.0995 -0.1763
    1W        W52999  25.106  22.671   6.801 -0.1525  0.1687 -0.3144
    1W        W53000   8.281   0.764   2.128 -0.2309 -0.3995  0.1492
    1W        W53001   5.620  12.034   8.062  0.2745 -0.2333  0.2499
    1W        W53002  16.461  17.397   1.354 -0.0523 -0.1282  0.1077
    1W        W53003   9.378   9.977   0.171  0.0790 -0.1062  0.1703
    1W        W53004   1.968  19.597   8.251 -0.0489 -0.0257  0.3803
    1W        W53005  19.661  24.836   7.383 -0.4726 -0.1422  0.3681
    1W        W53006  24.576  15.045   8.202  0.1807  0.0675 -0.2121
    1W        W53007  25.799  15.661   7.334 -0.1976  0.1722 -0.0227
    1W        W53008  21.193  26.446   7.705  0.0949  0.2652 -0.0544
    1W        W53009  11.872  14.404   1.740  0.1061  0.0713  0.1250
    1W        W53010  11.033  21.038   2.557 -0.7092 -0.1188 -0.3852
    1W        W53011  28.316  20.624   1.760  0.0584 -0.0271  0.1507
    1W        W53012  26.479   6.477   6.891 -0.1367  0.1819  0.0165
    1W        W53013   1.137  29.908   2.595  0.0816  0.0038 -0.1826
    1W        W53014  15.348  16.629   1.986  0.0090 -0.0072 -0.0525
    1W        W53015  14.032  13.613   7.985  0.0378  0.1455  0.0600
    1W        W53016  16.486   3.482   2.088  0.2899 -0.0337  0.0454
    1W        W53017   5.218  15.448   1.249  0.0149 -0.0684 -0.0432
    1W        W53018   3.631   0.867   2.438  0.1859 -0.0337  0.1444
    1W        W53019   3.825  17.833   1.018  0.1167  0.0601  0.1321
    1W        W53020   3.691   8.326   1.539  0.0481  0.0532 -0.0509
    1W        W53021  24.780  23.686   8.063  0.3831  0.0640 -0.0692
    1W        W53022  14.137  20.043   8.780  0.0318  0.4130  0.0485
    1W        W53023   0.609  22.435   1.255  0.1077  0.2147 -0.2105
    1W        W53024  19.249   1.739   8.802  0.0871 -0.0162 -0.1064
    1W        W53025   5.210  24.491   6.254 -0.2437 -0.0814 -0.1786
    1W        W53026   5.890  14.280   7.880  0.3581  0.3057  0.0328
    1W        W53027  18.850  28.547   2.418 -0.1474  0.0024 -0.0370
    1W        W53028  19.283  16.616   7.374  0.0224  0.2330 -0.2081
    1W        W53029  15.716   5.011   8.546 -0.3214  0.0747 -0.2917
    1W        W53030   2.691  29.224   8.421 -0.1067  0.0711  0.0868
    1W        W53031  16.596   0.335   3.228  0.0199 -0.0899  0.0047
    1W        W53032   3.080  21.350   5.910 -0.0124 -0.0607 -0.1303
    1W        W53033  28.730  23.496   7.483 -0.0817  0.0611 -0.0405
    1W        W53034   4.014  23.556   1.321  0.0412  0.3614  0.3753
    1W        W53035   1.409  28.598   7.657  0.2699 -0.0198  0.2544
    1W        W53036  18.649  20.193   9.154 -0.0860  0.2184  0.1771
    1W        W53037  24.018   0.086   0.547  0.3387  0.0469 -0.0027
    1W        W53038  22.792  28.063   1.919 -0.0069 -0.2338  0.3043
    1W        W53039   7.916  27.156   1.021 -0.1201  0.0923  0.1871
    1W        W53040  21.290   5.427   8.669  0.2594 -0.1828 -0.1022
    1W        W53041  18.174  25.956   7.999 -0.1320 -0.0767 -0.0503
    1W        W53042   3.679  22.178   7.511  0.2519  0.2017  0.0826
    1W        W53043  14.741  28.689   3.122 -0.2227 -0.1966 -0.3456
    1W        W53044  14.716  21.471   9.108 -0.0412 -0.0399  0.1842
    1W        W53045  26.717  12.209   1.456  0.1646  0.1838  0.2736
    1W        W53046  25.233  15.819   1.525 -0.0915 -0.3656 -0.2597
    1W        W53047  21.875  24.904   2.778 -0.1373 -0.2092 -0.0131
    1W        W53048   2.331   2.377   9.075 -0.1688  0.0706  0.2435
    1W        W53049  10.709  26.530   6.873 -0.0893  0.2601 -0.2519
    1W        W53050  25.317  25.176   0.430  0.3800  0.0712 -0.2131
    1W        W53051  20.426  23.034   3.187  0.1410 -0.0733 -0.0094
    1W        W53052  24.443  17.748   6.550 -0.1898 -0.1026 -0.2080
    1W        W53053   9.554  22.062   0.297 -0.0384 -0.0353 -0.0022
    1W        W53054  28.788   3.622   7.217 -0.2829  0.0856 -0.3244
    1W        W53055  21.821   5.315   2.090  0.1103  0.2659 -0.1563
    1W        W53056  19.427  26.537   1.308 -0.2300  0.1455  0.1471
    1W        W53057  28.911   3.553   6.309 -0.1220 -0.2375 -0.1069
    1W        W53058  19.993   2.013   7.392 -0.2863  0.1088 -0.0088
    1W        W53059  12.606  22.112   8.530 -0.2772  0.0081 -0.2605
    1W        W53060  23.379  20.779   1.722  0.1324 -0.0933  0.0034
    1W        W53061  25.447   8.315   9.211 -0.0537  0.0335  0.0953
    1W        W53062  29.706   4.010   9.307  0.0417 -0.1827 -0.4678
    1W        W53063   9.388   3.898   0.976  0.2811 -0.2657 -0.0487
    1W        W53064  24.158   5.374   7.054  0.1216 -0.0348  0.2549
    1W        W53065  28.173  14.643   7.818  0.0548 -0.4853  0.0690
    1W        W53066  23.469  27.754   1.776  0.1468 -0.0772  0.3021
    1W        W53067  21.554   6.672   3.354  0.0861  0.1497 -0.0365
    1W        W53068   0.280   8.337   1.106  0.0705 -0.0341  0.2024
    1W        W53069   5.508   9.428   8.809 -0.2284  0.3343  0.1928
    1W        W53070  10.405  13.214   1.768 -0.1851  0.1194  0.2517
    1W        W53071   2.143  20.615   6.354  0.0397 -0.0878 -0.2611
    1W        W53072  25.532  16.589   7.813  0.1203  0.1371  0.1145
    1W        W53073  29.701   8.542   9.066  0.0963 -0.1816 -0.4034
    1W        W53074  20.179  21.824   9.292  0.1431 -0.1062 -0.3409
    1W        W53075   0.694   9.161   7.917 -0.0167 -0.2842 -0.1054
    1W        W53076  26.703  13.413   6.370 -0.2562  0.0768  0.0377
    1W        W53077   2.266   8.019   7.700  0.2977 -0.0840  0.1353
    1W        W53078  17.592  28.786   1.250 -0.2710  0.1219  0.0771
    1W        W53079   4.983  28.526   1.899 -0.2295  0.1071  0.1461
    1W        W53080  27.546   2.165   7.226  0.2625 -0.0437 -0.1133
    1W        W53081  12.286  29.979   1.228 -0.1096  0.0785  0.3106
    1W        W53082  12.319  26.696   1.105  0.0934  0.0559 -0.1059
    1W        W53083  22.071   1.562   9.156  0.3147  0.0382 -0.0322
    1W        W53084   1.676  15.306   0.087 -0.0922 -0.0988  0.0705
    1W        W53085   4.765  24.749   0.942 -0.0468 -0.0389  0.3633
    1W        W53086  19.220  12.609   1.755 -0.3535  0.2572  0.2517
    1W        W53087  15.424  23.985   6.862  0.0250  0.1208  0.1965
    1W        W53088   5.448  23.017   8.218 -0.0863  0.2097 -0.1059
    1W        W53089  16.388   3.459   0.715  0.2760  0.0485 -0.1587
    1W        W53090   3.436  17.024   8.332 -0.2005 -0.2797 -0.1850
    1W        W53091   6.893  13.343   6.378 -0.1127 -0.1219 -0.1644
    1W        W53092   2.673  14.752   7.775 -0.3723 -0.0022 -0.1235
    1W        W53093  16.225   8.122   1.431 -0.1555  0.0549  0.3021
    1W        W53094   2.347  16.793   7.098  0.0423 -0.0286 -0.1613
    1W        W53095  16.038  20.930   0.413  0.1382  0.1328 -0.2559
    1W        W53096   2.117   0.214   2.658 -0.3828  0.3435  0.2363
    1W        W53097  16.285  14.193   1.118  0.2373  0.0785 -0.2645
    1W        W53098  28.643  28.317   2.812  0.1964 -0.0228  0.0658
    1W        W53099  24.007  13.434   1.576 -0.2208 -0.0965 -0.0795
    1W        W53100  14.671  16.375   9.313  0.3473 -0.1249 -0.0894
    1W        W53101  15.681   1.578   1.571  0.3003  0.2715 -0.0667
    1W        W53102   2.286   5.582   8.039  0.1513 -0.3637 -0.2058
    1W        W53103  20.653  13.963   9.231 -0.2161 -0.0640 -0.1655
    1W        W53104  16.938   7.502   1.090  0.1162 -0.1570  0.0947
    1W        W53105  14.028  13.786   1.638 -0.0246 -0.0889  0.0744
    1W        W53106  20.135  29.981   1.077  0.0326 -0.3076  0.1165
    1W        W53107  29.211  24.788   7.378  0.1122 -0.0943 -0.0430
    1W        W53108  23.407   0.976   6.387  0.0251 -0.0094 -0.2847
    1W        W53109  10.887  17.273   7.913  0.1393 -0.1427 -0.1997
    1W        W53110  24.636   2.249   2.479  0.0729 -0.2368 -0.3141
    1W        W53111  18.207   4.378   8.254  0.1043 -0.1513  0.3101
    1W        W53112  25.546  26.917   8.124  0.1968 -0.0274 -0.2351
    1W        W53113  20.077   3.525   9.071  0.1715 -0.1416 -0.0379
    1W        W53114   2.679  24.283   0.187 -0.1003  0.0126 -0.2304
    1W        W53115  20.164  20.131   7.355 -0.2234  0.2464 -0.2761
    1W        W53116  10.290   6.593   0.696  0.2243  0.0940 -0.2946
    1W        W53117  17.590   8.985   0.039 -0.1973  0.1199 -0.2432
    1W        W53118   9.762  22.939   6.937 -0.0180  0.4081  0.1901
    1W        W53119  16.532  26.093   8.633  0.0725  0.0461  0.0156
    1W        W53120   2.428  18.735   6.075 -0.0690  0.1410  0.0268
    1W        W53121   7.142  28.727   7.456 -0.0352  0.1842  0.2841
    1W        W53122  12.530  12.703   8.498 -0.1544  0.0634 -0.0008
    1W        W53123  26.757   3.846   0.779 -0.2336  0.2546 -0.3442
    1W        W53124  29.712  16.642   6.122  0.0319 -0.2065  0.0259
    1W        W53125  19.523   1.830   2.586  0.0117 -0.2202 -0.0736
    1W        W53126  16.466  27.388   1.762 -0.0500  0.0544 -0.0916
    1W        W53127  17.787   8.038   8.658 -0.0419  0.0948  0.2045
    1W        W53128   3.784  19.235   1.681  0.3113  0.0463 -0.0114
    1W        W53129  23.182   4.155   8.194  0.1515  0.2688  0.1061
    1W        W53130   9.388  12.828   7.719 -0.1817 -0.1893 -0.0315
    1W        W53131   8.022   1.058   8.211  0.0186  0.1075 -0.1014
    1W        W53132   1.022  19.184   5.658  0.2826 -0.1372  0.0716
    1W        W53133  25.070  25.478   7.617 -0.0353 -0.1998  0.0233
    1W        W53134  12.730   6.238   9.375  0.0377 -0.4908 -0.1065
    1W        W53135   3.100   0.857   7.780 -0.2026  0.1387  0.1202
    1W        W53136  18.422  30.016   9.352  0.2871 -0.3212 -0.3653
    1W        W53137   0.361   6.244   1.826 -0.1755  0.0182  0.0498
    1W        W53138   7.850   6.463   2.843  0.4137 -0.0894  0.0722
    1W        W53139  23.670  19.246   7.022 -0.2478  0.0050  0.2315
    1W        W53140  25.998   8.249   8.063 -0.4240  0.2733 -0.1434
    1W        W53141   6.712  12.244   0.639 -0.1180 -0.1858  0.1668
    1W        W53142   1.083   3.295   1.740 -0.1918 -0.1016  0.2492
    1W        W53143  23.174  14.218   8.670  0.0613  0.0130 -0.1367
    1W        W53144  14.041  26.175   8.697 -0.1690  0.2489 -0.1850
    1W        W53145   3.016  12.471   7.489  0.0184  0.0146  0.2494
    1W        W53146  21.629   7.465   7.743  0.0469 -0.2272  0.0950
    1W        W53147  26.123   8.795   0.284  0.2065  0.1858  0.0748
    1W        W53148  17.685  29.433   2.267  0.0060 -0.1460  0.1866
    1W        W53149  16.816  25.472   8.010 -0.1837 -0.0935  0.0965
    1W        W53150   6.109   7.312   3.512 -0.1608 -0.0392  0.0782
    1W        W53151  21.526  17.912   1.485  0.0509  0.4670 -0.0339
    1W        W53152  26.801  18.252   5.992 -0.2595  0.1177 -0.0077
    1W        W53153  21.886  22.569   1.214 -0.0484 -0.2131  0.1659
    1W        W53154   9.207  10.963   1.275  0.1592 -0.0485  0.1040
    1W        W53155  18.792   2.969   0.403 -0.2906 -0.2795  0.4085
    1W        W53156  14.263  23.503   7.929  0.3339 -0.0582 -0.0727
    1W        W53157   7.332  11.980   2.476  0.2854  0.1192  0.1278
    1W        W53158   1.542  28.951   1.547 -0.3039 -0.0218  0.2245
    1W        W53159  13.385  11.946   0.113 -0.1934 -0.0710  0.1197
    1W        W53160   3.304   6.404   6.863  0.0266 -0.0978  0.0183
    1W        W53161   1.044   7.558   1.339 -0.0787  0.0806 -0.0415
    1W        W53162   1.698  29.949   8.407 -0.3131 -0.1027 -0.2292
    1W        W53163   9.314  18.310   8.682 -0.1259  0.2701  0.0146
    1W        W53164  14.236  22.195   0.826  0.0418  0.3715  0.3512
    1W        W53165  24.586  18.025   7.011 -0.0752  0.0973  0.0949
    1W        W53166  24.131  22.829   6.748 -0.2259  0.3279  0.0655
    1W        W53167  25.531   4.421   6.841 -0.0560 -0.0409  0.5779
    1W        W53168  28.463  13.207   8.742  0.2752  0.0805  0.2392
    1W        W53169   4.968   3.884   7.250  0.1741 -0.0783 -0.1817
    1W        W53170  29.486  15.476   8.050 -0.0388 -0.2611 -0.2258
    1W        W53171  27.600   5.185   6.936  0.0153 -0.0418  0.1463
    1W        W53172  26.075   9.174   8.395  0.1975  0.0565  0.0754
    1W        W53173  12.968   9.117   1.009  0.0398  0.0791  0.1874
    1W        W53174  19.139  11.818   7.089  0.3677 -0.2836 -0.0243
    1W        W53175   7.181  24.619   6.497  0.3575  0.0430 -0.0470
    1W        W53176  24.764  15.871   5.229 -0.0716  0.0505  0.2232
    1W        W53177  18.003   3.210   9.123 -0.1543 -0.0459 -0.0882
    1W        W53178  16.205  16.654   0.633  0.3893  0.3913 -0.0367
    1W        W53179  22.298   4.056   1.185 -0.1782 -0.3152 -0.2530
    1W        W53180  27.636   2.568   7.520  0.0747 -0.3243  0.0603
    1W        W53181  18.686  16.592   7.344  0.3384  0.1866 -0.0847
    1W        W53182  11.116  27.435   7.800 -0.0877 -0.1953 -0.0186
    1W        W53183  22.359  21.658   8.610 -0.0201 -0.0477  0.1767
    1W        W53184  28.811  20.355   0.214  0.0309  0.1765  0.0637
    1W        W53185  27.952  28.559   0.591  0.0010 -0.0898  0.2825
    1W        W53186   6.034  29.958   0.626  0.1176 -0.3602 -0.1784
    1W        W53187  14.151  17.651   7.561  0.0277  0.0463  0.1568
    1W        W53188  13.417  29.408   0.400 -0.0367  0.1626  0.1716
    1W        W53189   0.021   4.427   3.179 -0.1736  0.1205  0.0601
    1W        W53190  29.511  21.814   0.067 -0.1593 -0.1531  0.0967
    1W        W53191   1.151  18.888   5.205  0.0093 -0.2777 -0.1343
    1W        W53192  15.073  20.183   9.266  0.0654 -0.0012 -0.0348
    1W        W53193   1.259  17.728   0.391  0.1655  0.2914 -0.0135
    1W        W53194  21.378  14.645   7.464 -0.0837  0.0943  0.2118
    1W        W53195  17.951   1.139   7.360 -0.1674  0.0392 -0.1076
    1W        W53196  10.681  23.377   1.224 -0.1277 -0.2863  0.1926
    1W        W53197  15.797   8.435   7.394 -0.1298 -0.3381 -0.1410
    1W        W53198  28.247   8.799   8.151 -0.0211  0.2116 -0.0107
    1W        W53199  15.167  24.821   1.685 -0.0614  0.1146  0.2147
    1W        W53200  24.669  12.198   0.681  0.2799 -0.3306 -0.1714
    1W        W53201   7.520   7.824   0.064  0.2648 -0.3152  0.1498
    1W        W53202  25.263  24.668   0.307  0.0147 -0.0549  0.0859
    1W        W53203  21.368  20.945   1.735 -0.0759  0.0486  0.0494
    1W        W53204  26.059  29.518   6.907 -0.1047 -0.3984 -0.0082
    1W        W53205  22.066   2.850   0.384  0.1807  0.1235  0.1680
    1W        W53206  17.822  28.504   2.030  0.0139  0.0143 -0.1204
    1W        W53207  14.062  14.242   6.751  0.2733 -0.0819  0.0174
    1W        W53208   8.914  28.362   2.891 -0.0626 -0.0471  0.1572
    1W        W53209  20.910   6.856   8.352 -0.2224 -0.2224 -0.1051
    1W        W53210   2.326  23.226   8.021 -0.3851 -0.0206  0.0975
    1W        W53211  25.652  23.684   8.776  0.3413 -0.0135 -0.4053
    1W        W53212  29.959   4.202   7.238  0.1441 -0.1744 -0.3189
    1W        W53213  22.102  29.113   0.536  0.1968 -0.0816 -0.0151
    1W        W53214   2.190  22.488   4.969 -0.1896 -0.2235  0.0097
    1W        W53215  16.788   6.629   0.641  0.1136 -0.0098  0.0846
    1W        W53216  17.846  24.687   2.955  0.1203 -0.3595  0.2525
    1W        W53217   9.825   3.199   1.944  0.1521 -0.0548 -0.2956
    1W        W53218  21.653  21.680   1.655  0.1204  0.2011  0.1352
    1W        W53219  16.158   6.417   0.343  0.1693  0.2302  0.1136
    1W        W53220  11.892  26.854   0.805  0.1229 -0.0767 -0.1176
    1W        W53221   6.088  25.750   9.068 -0.1656 -0.1407 -0.1931
    1W        W53222  17.012  20.063   9.115 -0.0870  0.0806 -0.1169
    1W        W53223   1.869  12.166   7.414 -0.0951 -0.0008 -0.0764
    1W        W53224  21.444   8.183   6.657 -0.0939  0.3980 -0.0750
    1W        W53225  12.529  13.691   0.367  0.0914  0.1063 -0.2843
    1W        W53226   7.393  15.818   3.259 -0.0325  0.1494  0.0186
    1W        W53227  17.305   2.488   0.347 -0.0024  0.4535  0.1746
    1W        W53228  27.199   7.635   7.549 -0.0563 -0.0757  0.2918
    1W        W53229  11.494   5.344   2.241 -0.3111 -0.1425  0.0021
    1W        W53230   5.373   8.661   0.291  0.0032 -0.0100  0.0464
    1W        W53231  13.209  20.762   2.250  0.3376 -0.0851  0.1143
    1W        W53232  17.433   5.231   8.249 -0.1516  0.0637 -0.2040
    1W        W53233  20.911  15.155   9.273  0.0551 -0.1077 -0.1543
    1W        W53234  18.325  10.245   8.291 -0.0477  0.3807  0.2697
    1W        W53235  18.775  11.674   1.308 -0.0296 -0.1391 -0.0001
    1W        W53236  27.626   9.596   6.827 -0.0934  0.3695  0.1452
    1W        W53237   0.069  27.163   6.984  0.2220 -0.2015 -0.0579
    1W        W53238  18.636  28.061   1.776  0.0909  0.3613  0.1343
    1W        W53239  19.566   0.461   7.773  0.1783 -0.0876  0.0909
    1W        W53240  29.029  11.927   6.183 -0.1121  0.1576  0.2132
    1W        W53241  11.513   6.363   0.193 -0.0520  0.2067  0.2578
    1W        W53242  28.481  29.115   9.032  0.1858  0.1674  0.0064
    1W        W53243  23.194  13.834   9.094  0.2896  0.1815  0.1490
    1W        W53244   2.999  24.411   8.715 -0.3205 -0.2860 -0.0984
    1W        W53245   9.031   5.192   0.744 -0.1801 -0.0040  0.0939
    1W        W53246  29.608  12.951   1.595 -0.2505 -0.0556 -0.3160
    1W        W53247  21.657   0.306   3.267  0.1131 -0.1055 -0.0802
    1W        W53248   6.418  29.014   2.051 -0.3111  0.3732  0.0586
    1W        W53249  29.886   2.899   8.560 -0.2408 -0.3318  0.2087
    1W        W53250  21.567  12.147   8.444 -0.0853 -0.1525  0.0342
    1W        W53251  14.871  27.922   7.346 -0.1190  0.2291 -0.0366
    1W        W53252  12.319  20.453   7.950  0.2269  0.1274 -0.2219
    1W        W53253   2.325  25.924   1.210 -0.2557  0.3363  0.1475
    1W        W53254  24.917  11.292   6.603  0.1978 -0.1627 -0.4343
    1W        W53255  11.964  25.765   9.141 -0.0093 -0.1002  0.0715
    1W        W53256  12.946   6.551   9.000 -0.1867 -0.0911 -0.0968
    1W        W53257   2.557   7.732   7.986  0.1858  0.2046  0.1646
    1W        W53258   3.232  27.673   0.834 -0.3320 -0.3087 -0.0605
    1W        W53259   9.657  14.488   7.644  0.0200 -0.0437 -0.2480
    1W        W53260  29.447  16.553   1.032  0.3840 -0.1760  0.1161
    1W        W53261  16.294   7.755   8.470  0.2095 -0.0065 -0.2682
    1W        W53262   2.859   2.701   1.800  0.1117  0.2062 -0.3052
    1W        W53263   8.052   2.151   6.621 -0.1145 -0.2501  0.0676
    1W        W53264   3.983  24.560   8.960  0.3191 -0.3638  0.0491
    1W        W53265  24.837  22.911   7.261 -0.5047  0.0323  0.4312
    1W        W53266  29.282   8.918   7.375  0.0496  0.0974 -0.0834
    1W        W53267  20.094   5.573   8.067 -0.1970  0.0314 -0.2575
    1W        W53268  29.859  27.677   9.059 -0.2936 -0.1575  0.0512
    1W        W53269  25.018   9.607   0.314  0.1993 -0.1874  0.0246
    1W        W53270   9.673  14.642   1.262 -0.3048 -0.0904  0.1454
    1W        W53271  11.373  15.297   1.024 -0.0634 -0.3646 -0.0175
    1W        W53272  16.854   4.135   8.895 -0.0456 -0.0789  0.0980
    1W        W53273  27.071  16.827   7.995  0.1308  0.1423  0.0343
    1W        W53274  23.066  10.625   7.761 -0.1979  0.1176 -0.2187
    1W        W53275  25.492  12.166   2.219 -0.0448 -0.1632  0.1184
    1W        W53276  13.118  10.223   1.474 -0.4232 -0.2282 -0.1632
    1W        W53277  27.288  18.430   6.113  0.4644 -0.1733  0.0676
    1W        W53278  19.626  19.268   0.738 -0.1273  0.0150  0.0663
    1W        W53279  20.213   6.043   3.685  0.1222 -0.1535  0.1364
    1W        W53280   5.716  11.896   1.057 -0.0238  0.0345 -0.1361
    1W        W53281   5.707   8.476   1.184 -0.0014 -0.2758 -0.2222
    1W        W53282  15.444  28.404   2.444 -0.1586 -0.1209  0.2263
    1W        W53283   5.920  17.848   9.059 -0.0594  0.2066  0.0871
    1W        W53284   5.961   6.785   0.516  0.1820 -0.0722  0.1883
    1W        W53285  20.146  27.235   2.466 -0.0375  0.2337 -0.2877
    1W        W53286  23.581  15.988   0.361 -0.2326 -0.1233  0.2228
    1W        W53287   8.783   3.476   2.576  0.0467 -0.0818 -0.0325
    1W        W53288  12.628   3.225   1.567 -0.1446 -0.2022  0.0321
    1W        W53289   3.763  24.796   0.557 -0.2940  0.0394 -0.3734
    1W        W53290  11.573  10.693   2.742 -0.0165  0.1231 -0.1484
    1W        W53291   2.666  26.257   6.707 -0.1345 -0.0723  0.0293
    1W        W53292   1.703  23.132   8.673 -0.0533  0.0590  0.0617
    1W        W53293  23.187  22.440   6.993 -0.3477 -0.1448 -0.0354
    1W        W53294  10.758   7.648   3.138  0.1746 -0.1613  0.0459
    1W        W53295  26.976  18.872   0.935  0.2115 -0.1483 -0.0355
    1W        W53296  12.252  18.276   7.754  0.3626 -0.1034 -0.3269
    1W        W53297  25.641  22.042   2.644  0.1413  0.0677 -0.1589
    1W        W53298  18.533   1.907   7.450 -0.3005  0.2447  0.1026
    1W        W53299  28.829  29.596   9.037  0.1603  0.3242  0.2215
    1W        W53300  29.296   6.802   8.484  0.4897 -0.1331 -0.2028
    1W        W53301  18.898   2.584   8.893 -0.0406  0.3116  0.1100
    1W        W53302   0.634  20.705   1.586 -0.4843  0.3225 -0.2018
    1W        W53303  16.867   9.649   9.361  0.1060 -0.0862  0.0686
    1W        W53304  16.134  25.146   9.293 -0.1803  0.5607 -0.0650
    1W        W53305   5.203  17.735   6.177  0.1246 -0.0736  0.2706
    1W        W53306   8.584  10.785   9.168  0.3957  0.1794  0.1889
    1W        W53307   7.508   0.251   1.743 -0.4990  0.1451  0.0349
    1W        W53308   9.347   1.608   0.536 -0.1077  0.2249 -0.1331
    1W        W53309   4.965   7.136   7.459  0.0831 -0.1396  0.3807
    1W        W53310  12.102   4.876   9.066 -0.1596  0.0487 -0.0177
    1W        W53311  10.520  24.126   7.413 -0.0167  0.1961 -0.0026
    1W        W53312  21.656  23.682   7.132  0.2569  0.0857 -0.0654
    1W        W53313  21.958  11.723   8.519 -0.0874 -0.1156  0.1995
    1W        W53314  14.773  21.879   1.013 -0.1319  0.1683  0.3137
    1W        W53315   7.590   1.481   0.072 -0.1659 -0.1812 -0.2011
    1W        W53316  27.758  19.493   7.002 -0.1884 -0.0594  0.2732
    1W        W53317  16.422  28.156   2.205  0.0610 -0.0622  0.3028
    1W        W53318  10.193   6.415   1.174 -0.1930  0.0522 -0.1361
    1W        W53319  30.033   1.827   7.274 -0.1145  0.0610  0.0236
    1W        W53320  12.179  29.570   8.870  0.0530  0.1788  0.4037
    1W        W53321   8.983   4.665   0.848 -0.0785 -0.0245  0.0044
    1W        W53322  18.220  10.680   9.085 -0.0298  0.0442  0.1166
    1W        W53323   8.847  12.368   8.254  0.1472  0.2256  0.0139
    1W        W53324  12.457   6.427   7.679 -0.2294  0.0186  0.0680
    1W        W53325  18.363  21.361   9.318  0.1856  0.0206 -0.2371
    1W        W53326   8.778  14.434   2.370 -0.0947 -0.0020  0.0301
    1W        W53327   7.736  16.002   2.910  0.3037 -0.0869  0.0366
    1W        W53328   7.566   4.422   0.685 -0.0989  0.3673 -0.2825
    1W        W53329  15.634  19.983   7.750 -0.0815  0.1415 -0.1654
    1W        W53330   8.191  10.213   8.350 -0.2543  0.6534 -0.0806
    1W        W53331  11.354  25.085   0.637 -0.2652  0.3426  0.1193
    1W        W53332  21.831  28.415   2.820 -0.1776  0.1265  0.3072
    1W        W53333  24.910  25.473   0.454  0.2397  0.3633  0.1775
    1W        W53334  29.804  18.784   8.649 -0.1798 -0.1065 -0.1089
    1W        W53335  10.573   6.146   0.708 -0.0987  0.0509  0.2993
    1W        W53336   9.149  10.687   9.138  0.0889 -0.2269  0.0098
    1W        W53337  28.025  13.873   5.377 -0.0793 -0.1545  0.0381
    1W        W53338  11.523   3.600   8.116 -0.1930  0.0385  0.0225
    1W        W53339   2.440   4.504   7.823 -0.0482  0.2787 -0.0066
    1W        W53340  16.239   9.667   7.894  0.2664 -0.0014 -0.1943
    1W        W53341   0.602  26.444   8.213  0.0198  0.0918  0.1019
    1W        W53342   0.638  18.985   9.047  0.0202  0.0849 -0.0519
    1W        W53343   3.675   7.257   0.036  0.1473 -0.2605 -0.2027
    1W        W53344   1.884   8.134   0.186  0.1304  0.0075  0.2091
    1W        W53345  19.701  10.707   0.267 -0.0308 -0.0641  0.0310
    1W        W53346  27.948  28.570   7.852  0.1887 -0.1671 -0.2972
    1W        W53347  27.297  19.857   5.744  0.2208  0.1862 -0.0901
    1W        W53348   0.220   9.137   8.505  0.3670  0.0992 -0.1517
    1W        W53349  14.270  21.029   2.235 -0.2967 -0.2549 -0.0578
    1W        W53350   6.453  24.158   0.728 -0.3178 -0.0559 -0.1260
    1W        W53351  16.393  10.534   1.854 -0.1272  0.1631  0.3553
    1W        W53352  26.774   2.858   7.771  0.2396  0.2256  0.3276
    1W        W53353  25.485   5.423   7.867  0.1762 -0.1583  0.1611
    1W        W53354  20.351  22.740   7.546 -0.1475  0.0779  0.0546
    1W        W53355   6.848   9.372   2.845 -0.0971 -0.0214  0.1738
    1W        W53356  14.405  13.818   8.351  0.0471 -0.0987 -0.0772
    1W        W53357   9.130   4.775   7.981 -0.2665  0.3140  0.4716
    1W        W53358  22.262  29.176   6.307 -0.2182 -0.0645  0.0719
    1W        W53359  14.940  22.345   1.867  0.1939 -0.0912 -0.1188
    1W        W53360   6.165   5.226   0.062  0.0217  0.3452  0.1562
    1W        W53361  10.681  11.179   7.743 -0.3614 -0.1179 -0.1029
    1W        W53362  26.579  23.385   8.698 -0.0793 -0.2775  0.1679
    1W        W53363  24.749  17.111   7.680 -0.1107 -0.1209 -0.1450
    1W        W53364  12.342  19.960   0.174  0.2533 -0.1994 -0.2437
    1W        W53365  24.350  28.671   9.117 -0.0150 -0.3197  0.2374
    1W        W53366  19.669   4.465   2.428  0.3095 -0.2678 -0.1581
    1W        W53367   1.741   6.292   1.437  0.1376  0.0477  0.0324
    1W        W53368  29.486  29.075   8.499  0.0901  0.1923  0.2291
    1W        W53369   1.663  25.278   8.494 -0.0333 -0.1058 -0.1863
    1W        W53370  18.149  19.225   1.455 -0.2634  0.2506 -0.2075
    1W        W53371  24.293   8.769   1.334 -0.2019 -0.0814  0.1690
    1W        W53372  19.835  17.737   8.721  0.1989 -0.2618 -0.0979
    1W        W53373  18.065   5.500   8.999 -0.1693  0.2211  0.0921
    1W        W53374  29.965  26.377   2.554  0.2409 -0.4250 -0.0086
    1W        W53375  20.182   0.634   2.019  0.2439  0.1507 -0.0035
    1W        W53376  10.309   2.883   9.048 -0.1562 -0.3104  0.1981
    1W        W53377  17.666  26.289   2.300 -0.2206 -0.1003  0.0034
    1W        W53378  25.443  11.649   7.859 -0.0547 -0.3048  0.1479
    1W        W53379  24.497   7.928   2.226 -0.1757 -0.0057  0.0239
    1W        W53380  22.861  20.092   1.320 -0.1286 -0.3657  0.0774
    1W        W53381  23.457  20.328   0.841  0.1952  0.1159  0.2641
    1W        W53382  24.669  16.657   2.297 -0.3033 -0.0197 -0.1189
    1W        W53383  28.547  11.717   0.306 -0.1580 -0.4318  0.0720
    1W        W53384   5.111   9.720   2.566 -0.1233  0.0597 -0.0849
    1W        W53385   9.315  26.733   7.342  0.2841 -0.1217  0.1065
    1W        W53386  19.813  26.999   7.146 -0.0419 -0.1463  0.0356
    1W        W53387  27.954  11.058   1.197  0.0795  0.0100  0.0461
    1W        W53388  25.913  16.593   6.305  0.0431  0.0399  0.1083
    1W        W53389   6.990  22.302   1.917  0.2604 -0.0455  0.4695
    1W        W53390  24.555  23.272   9.400  0.1567  0.0653  0.0761
    1W        W53391   7.046   6.870   8.173  0.1575 -0.0092  0.0791
    1W        W53392  14.751  11.191   1.538 -0.0442  0.1200 -0.0853
    1W        W53393  18.308  25.106   8.669 -0.3250  0.0037  0.2771
    1W        W53394   0.586   0.807   0.974 -0.0508  0.3707 -0.3037
    1W        W53395  17.984   1.166   4.182  0.2425 -0.0687  0.1242
    1W        W53396  29.273  22.362   1.512  0.0600  0.0168  0.3475
    1W        W53397   7.961  22.618   6.646 -0.0983 -0.4537 -0.1818
    1W        W53398   8.697   7.154   3.017 -0.2220 -0.0322  0.2694
    1W        W53399   7.645  23.669   1.660  0.2524  0.0978 -0.0245
    1W        W53400   8.828   3.004   8.540  0.1039 -0.0295 -0.2819
    1W        W53401  26.754  10.002   7.387  0.0398 -0.0692 -0.0169
    1W        W53402  24.651  27.833   7.495  0.0084 -0.1542 -0.2211
    1W        W53403  24.271  21.559   8.376  0.1290  0.1001 -0.1634
    1W        W53404  23.785  23.436   8.748  0.0140  0.2992  0.1190
    1W        W53405   8.972  27.686   6.704  0.0775 -0.2207  0.1617
    1W        W53406  27.005   4.181   5.933 -0.1795 -0.0321  0.4348
    1W        W53407  15.452   2.989   0.715  0.0658 -0.0705 -0.2734
    1W        W53408   3.773  29.095   9.195  0.0787 -0.0082 -0.0448
    1W        W53409   1.228  17.268   1.923  0.0207  0.2138 -0.3145
    1W        W53410  27.226   5.569   0.032  0.0197  0.1780  0.0665
    1W        W53411  14.303  28.536   1.742  0.0285  0.0084 -0.1120
    1W        W53412  13.426   5.553   0.862 -0.1701  0.1019  0.0840
    1W        W53413  23.298  25.834   0.513  0.0448 -0.0844  0.0088
    1W        W53414  12.921  13.730   0.033 -0.1087 -0.3028  0.1790
    1W        W53415  15.029  13.178   8.447 -0.3000  0.1368 -0.0319
    1W        W53416  24.336  24.779   0.663 -0.0002 -0.2567  0.1247
    1W        W53417  13.994  28.333   1.391 -0.1519 -0.4413  0.0933
    1W        W53418  20.285   2.010   2.943  0.0080  0.1705 -0.2382
    1W        W53419  12.839   3.943   2.423  0.2819 -0.0300  0.1284
    1W        W53420  25.665  23.966   7.900 -0.0515 -0.0591  0.0879
    1W        W53421   3.181   5.099   6.969  0.1171  0.1531 -0.1799
    1W        W53422   0.095   5.094   7.094 -0.0338 -0.1291 -0.2953
    1W        W53423   9.668  24.044   1.748  0.2533 -0.0148 -0.2892
    1W        W53424   1.185   5.452   1.144 -0.0358  0.2321  0.1911
    1W        W53425  10.213  21.529   1.471  0.0957  0.0929  0.2404
    1W        W53426  27.836   9.882   2.461 -0.0155 -0.3564  0.0970
    1W        W53427  13.415   2.315   7.442 -0.1205  0.2225 -0.0592
    1W        W53428   4.759  21.899   5.887  0.2517  0.0697  0.1260
    1W        W53429  27.296  28.807   1.327 -0.1136 -0.1272 -0.0072
    1W        W53430  26.246  14.030   6.271  0.0306  0.1104  0.0691
    1W        W53431  12.770  15.946   1.492  0.0816 -0.1884 -0.0970
    1W        W53432   9.211   6.027   8.984 -0.0394  0.1486  0.1351
    1W        W53433  29.541  27.825   1.425 -0.1939 -0.0105  0.3637
    1W        W53434  16.349   9.600   8.818  0.0783 -0.2135  0.0932
    1W        W53435  29.324  11.507   9.213 -0.0106  0.4693  0.0934
    1W        W53436  18.524  27.625   9.230  0.0653  0.1006 -0.0711
    1W        W53437   7.219  16.341   7.549 -0.0058 -0.0222 -0.0082
    1W        W53438   0.196  11.543   8.193 -0.1660 -0.4449  0.0293
    1W        W53439  14.715   1.578   2.283  0.1133  0.1421 -0.2178
    1W        W53440  17.399   6.253   8.558  0.1204  0.0107 -0.1299
    1W        W53441  24.607  15.021   1.070 -0.1873 -0.1822  0.0014
    1W        W53442   9.884   4.716   1.066 -0.3511  0.0817  0.0679
    1W        W53443   4.900  15.061   7.563  0.0880 -0.0686 -0.0546
    1W        W53444   3.154  24.488   8.217  0.2801  0.2823  0.1635
    1W        W53445  16.069  26.584   7.055  0.0643 -0.0144 -0.0446
    1W        W53446   6.460  14.238   6.923 -0.0393  0.2491  0.0330
    1W        W53447  28.464  17.282   6.835 -0.0060 -0.3340 -0.4192
    1W        W53448  26.301  22.531   9.234 -0.0573 -0.1363 -0.2729
    1W        W53449   3.525  23.082   0.726  0.1396  0.0281 -0.1851
    1W        W53450   4.930   4.765   0.423  0.1514  0.0283 -0.2331
    1W        W53451  26.753  27.466   6.250 -0.1074  0.0595  0.0492
    1W        W53452   3.698   9.149   8.603 -0.0233 -0.3224 -0.2604
    1W        W53453  15.263  20.956   2.302 -0.1105  0.0286 -0.0659
    1W        W53454  30.006  28.343   1.652  0.0580 -0.2867  0.0088
    1W        W53455   5.636  20.642   6.962  0.0808 -0.3161  0.2027
    1W        W53456  11.441  16.532   0.585 -0.2388  0.2442 -0.0684
    1W        W53457   7.171   8.549   2.879 -0.0248  0.1488  0.0110
    1W        W53458   0.477  22.819   0.493  0.1440 -0.1860  0.0537
    1W        W53459   8.753  15.882   7.131 -0.0885  0.0642  0.1188
    1W        W53460  11.897  11.783   2.546  0.1806  0.0365 -0.1626
    1W        W53461   7.198  25.239   8.265  0.2001 -0.0134  0.0156
    1W        W53462  14.845  18.157   2.016 -0.0723 -0.0476 -0.0515
    1W        W53463  25.521   0.579   8.952 -0.0875  0.0066  0.2530
    1W        W53464   4.460  22.492   9.252  0.2463 -0.0878 -0.0419
    1W        W53465   9.091  23.398   1.347  0.2806  0.1612  0.2465
    1W        W53466  14.141  28.122   7.734 -0.1352  0.0883  0.0418
    1W        W53467  21.918   2.403   0.192 -0.0870 -0.1014  0.3386
    1W        W53468   9.374   3.319   3.604  0.0302  0.0745  0.2184
    1W        W53469   9.325  24.758   6.654 -0.1201 -0.1146 -0.2819
    1W        W53470  11.025   5.025   8.875  0.0744  0.2208  0.1928
    1W        W53471  10.220  18.679   0.486 -0.0179 -0.0222 -0.2563
    1W        W53472   8.149  21.000   7.299  0.1629 -0.2996 -0.1945
    1W        W53473   0.330   9.390   1.042 -0.0595  0.3231  0.0369
    1W        W53474  16.451  29.224   2.285  0.2114 -0.1691 -0.2470
    1W        W53475   2.826   8.383   1.809  0.1666  0.1498 -0.1357
    1W        W53476   6.527   6.407   8.114  0.0811  0.1310  0.4743
    1W        W53477   9.698  25.532   8.567 -0.1983 -0.0423  0.0894
    1W        W53478   8.082  26.977   0.099  0.3434 -0.0073 -0.1424
    1W        W53479  14.677  26.480   1.935  0.1106  0.1979  0.0966
    1W        W53480  24.027  18.325   6.184 -0.1010  0.0268  0.0068
    1W        W53481  16.272  22.751   1.990 -0.1027 -0.0006 -0.0165
    1W        W53482  27.292  10.127   7.401  0.1030  0.0928  0.1275
    1W        W53483  14.540  23.574   1.678 -0.1034 -0.3095  0.0635
    1W        W53484   0.117  11.241   6.567  0.1124  0.0712  0.0036
    1W        W53485  15.658  22.251   1.033  0.1674  0.4124 -0.0265
    1W        W53486  26.403  14.806   0.386  0.0506 -0.1357  0.2212
    1W        W53487  10.976  19.762   7.691  0.1988 -0.2725  0.2401
    1W        W53488   2.356  16.197   7.261 -0.1235  0.4214  0.0904
    1W        W53489   9.138  29.736   0.994  0.1825  0.0797  0.2511
    1W        W53490   9.682   0.553   7.981 -0.0035 -0.1922  0.2344
    1W        W53491  12.496   1.595   3.315  0.1561  0.0469 -0.0527
    1W        W53492  28.794  13.549   7.075 -0.0351  0.2304 -0.0243
    1W        W53493   7.961  15.772   8.730  0.0181 -0.1296 -0.0925
    1W        W53494   2.035  19.861   5.461 -0.1130 -0.2147 -0.2221
    1W        W53495   7.158   5.495   1.594  0.0943 -0.2785  0.2940
    1W        W53496   0.275  21.458   9.176 -0.5489 -0.0543  0.0000
    1W        W53497  13.902  10.354   0.811  0.1075 -0.2686 -0.0377
    1W        W53498   7.327  23.687   6.688  0.2295 -0.4423  0.1358
    1W        W53499  29.706  19.530   1.059  0.1900 -0.1919  0.1034
    1W        W53500  21.577   4.264   2.122  0.1020  0.0680  0.3888
    1W        W53501  10.368  21.070   1.592  0.0189 -0.2873  0.2491
    1W        W53502   0.303  15.230   8.337 -0.0634  0.0016  0.0757
    1W        W53503  10.769  29.789   7.595  0.1402 -0.0631  0.0286
    1W        W53504  13.397  15.985   2.696 -0.2280 -0.2221 -0.2563
    1W        W53505  26.262  17.032   9.291 -0.1614 -0.2566  0.2624
    1W        W53506   7.395  15.916   1.643  0.0038  0.0186 -0.3413
    1W        W53507  12.480   7.384   1.523  0.0558 -0.0025 -0.0605
    1W        W53508  13.013  30.037   8.843 -0.2181 -0.2245  0.4614
    1W        W53509  24.250   7.509   1.910 -0.0592 -0.0933 -0.0202
    1W        W53510  28.885  24.982   2.332 -0.1253  0.2886  0.0354
    1W        W53511  25.884   2.788   7.348 -0.1763  0.3542 -0.0723
    1W        W53512  16.581  27.848   1.794  0.2641 -0.1691 -0.3738
    1W        W53513  16.502  21.159   8.832 -0.1129 -0.1941  0.0697
    1W        W53514  21.995   0.055   7.969 -0.1689  0.0303  0.1264
    1W        W53515   7.782   6.969   3.031  0.2698  0.0205  0.0140
    1W        W53516   2.732  26.302   6.207 -0.1137 -0.0063  0.0848
    1W        W53517  28.922  20.142   8.371  0.0910  0.0847  0.2269
    1W        W53518  24.949  19.933   1.061 -0.0323 -0.0234 -0.0668
    1W        W53519  19.360  14.320   8.706  0.0128 -0.2400 -0.2173
    1W        W53520  26.977  17.636   0.805 -0.2652 -0.3470  0.1923
    1W        W53521  19.558   6.423   0.409 -0.0021  0.2083 -0.1867
    1W        W53522  10.136  29.204   3.398 -0.0441  0.1503  0.1001
    1W        W53523  29.119  24.946   5.833 -0.2507 -0.1523  0.3336
    1W        W53524  27.014  28.562   7.655 -0.0066 -0.0692  0.0973
    1W        W53525  21.522   8.117   0.183  0.0534 -0.0514  0.2515
    1W        W53526  28.009  10.403   2.559  0.0619  0.0016 -0.0528
    1W        W53527  13.632   6.891   0.944  0.3408 -0.1807 -0.0111
    1W        W53528  25.719  12.401   0.911  0.0878 -0.0329 -0.1323
    1W        W53529  13.615   8.893   1.954 -0.2787  0.0326  0.3793
    1W        W53530   2.999   7.027   9.362  0.0448  0.2159 -0.1003
    1W        W53531  20.887   8.646   0.426 -0.1510 -0.1991  0.0031
    1W        W53532  24.294  14.479   7.203 -0.2967  0.0672  0.1461
    1W        W53533   7.229   2.957   3.707  0.0322  0.2276 -0.1770
    1W        W53534  28.554  11.750   8.157  0.2893 -0.0192 -0.1736
    1W        W53535  19.137  21.289   7.167  0.1922 -0.3371  0.0140
    1W        W53536  22.566  18.864   7.342  0.1914 -0.0288 -0.0073
    1W        W53537   2.317  18.772   6.595 -0.0273 -0.0623  0.1289
    1W        W53538   0.837  12.622   0.985  0.0735  0.1014 -0.0298
    1W        W53539   8.735   7.767   1.547  0.2493 -0.0329 -0.0830
    1W        W53540  15.703  26.375   0.882  0.0247  0.1570  0.1397
    1W        W53541  20.720   4.878   8.404 -0.0804 -0.0922  0.1772
    1W        W53542   3.833  14.683   8.886  0.0214 -0.1667 -0.0868
    1W        W53543  16.591   4.955   2.135  0.2036  0.0158 -0.2021
    1W        W53544  18.684  21.388   6.970  0.1143 -0.1700  0.0335
    1W        W53545  26.004   9.310   6.597 -0.0541 -0.2433 -0.0557
    1W        W53546   2.521   6.530   7.011 -0.2501 -0.0395 -0.2970
    1W        W53547  18.533   3.018   9.384 -0.0049 -0.0078 -0.1078
    1W        W53548  19.984  26.941   7.894  0.0175  0.0167  0.5290
    1W        W53549  12.994  23.212   7.319 -0.2227  0.0086  0.2417
    1W        W53550  14.381   7.248   1.714  0.0760 -0.1787 -0.2929
    1W        W53551   5.271   4.646   0.862 -0.1290 -0.1648  0.0722
    1W        W53552  25.398  13.857   7.963 -0.0353  0.4143 -0.0694
    1W        W53553  28.745   8.209   7.225 -0.2040  0.2635  0.0807
    1W        W53554  14.037  18.158   7.959  0.1794 -0.1841  0.0713
    1W        W53555  15.755   9.522   7.930  0.1323  0.2122 -0.2946
    1W        W53556  12.160  21.302   0.693  0.0963  0.0571  0.0405
    1W        W53557  28.149  20.225   5.742 -0.3483 -0.0628 -0.2130
    1W        W53558  29.539  25.511   7.453 -0.0356 -0.0845  0.2331
    1W        W53559  26.366  11.289   9.235  0.4245  0.0088  0.2207
    1W        W53560  25.081  11.899   0.452  0.0181 -0.1861  0.1228
    1W        W53561   4.123  28.224   0.746 -0.1038 -0.1044  0.2382
    1W        W53562   2.037   2.520   2.872  0.0157  0.2528 -0.1674
    1W        W53563   2.684  11.781   9.352  0.0496  0.1878 -0.3287
    1W        W53564  12.909  11.196   1.776 -0.2186 -0.2417  0.2223
    1W        W53565  11.819   8.848   9.023  0.1302 -0.0887 -0.1446
    1W        W53566  27.049  13.538   1.636  0.1681 -0.0397 -0.1186
    1W        W53567   9.006  10.332   0.901  0.4037 -0.1825 -0.1124
    1W        W53568   4.418  20.393   9.047 -0.1683 -0.0478  0.1538
    1W        W53569  23.952   5.705   8.871 -0.1628 -0.0119  0.0243
    1W        W53570   5.593   8.976   8.933 -0.0430  0.0626 -0.1181
    1W        W53571  10.092  14.906   0.460  0.1031  0.3611  0.0135
    1W        W53572   2.431   4.162   0.138  0.1962  0.1160  0.1384
    1W        W53573   3.198  22.059   7.643 -0.2566 -0.1695  0.0962
    1W        W53574   4.055  17.901   5.215  0.1496 -0.3407 -0.2182
    1W        W53575  28.409   2.718   1.113  0.0472  0.1672 -0.2294
    1W        W53576  27.224  19.628   8.875 -0.0284 -0.0150  0.2483
    1W        W53577  27.827  28.413   7.404  0.0900 -0.1051  0.3385
    1W        W53578  25.235  16.278   0.227 -0.0784  0.0609  0.1085
    1W        W53579  10.456  19.667   7.537  0.1561  0.0037 -0.0354
    1W        W53580  11.871  19.246   8.892  0.1018  0.0085 -0.0477
    1W        W53581   8.694  19.791   7.793  0.4204  0.0168 -0.1094
    1W        W53582  14.449   3.146   7.696 -0.1690 -0.0229 -0.0412
    1W        W53583  20.238  23.000   6.881  0.1528 -0.2801  0.2461
    1W        W53584  10.212   3.132   7.411 -0.3915 -0.1639  0.3943
    1W        W53585  21.648  15.214   9.333 -0.0666  0.3030  0.3646
    1W        W53586  14.797  27.151   6.143 -0.0735  0.1072 -0.1198
    1W        W53587   1.881  27.233   0.264 -0.1656  0.0322 -0.0630
    1W        W53588  17.117  23.123   7.061 -0.0682  0.2294  0.1674
    1W        W53589   5.944  15.895   1.423 -0.0854 -0.1770 -0.4620
    1W        W53590   1.902  11.970   8.738  0.0969 -0.0909 -0.1311
    1W        W53591  19.433  23.168   2.405  0.0792 -0.1295 -0.0634
    1W        W53592  28.288  12.579   0.217 -0.1778  0.0390 -0.3524
    1W        W53593   2.611  10.608   7.951 -0.1660  0.0563 -0.1072
    1W        W53594  21.937   5.352   0.970 -0.0414  0.1836 -0.0839
    1W        W53595  12.696   1.892   8.389  0.1220 -0.0328  0.3285
    1W        W53596  16.156   4.424   2.771  0.1690  0.1609 -0.2456
    1W        W53597   8.603  23.105   7.764 -0.1149  0.2055  0.1521
    1W        W53598  10.554   4.176   1.163 -0.3926  0.0414 -0.0301
    1W        W53599  29.352  25.396   2.005  0.0116 -0.2638 -0.1721
    1W        W53600  26.257  10.118   7.212 -0.1266 -0.1154  0.2298
    1W        W53601  12.326  21.594   0.286  0.2202  0.0228  0.0660
    1W        W53602  26.025   6.941   1.311 -0.2377 -0.1196  0.0389
    1W        W53603  27.036  17.379   7.862 -0.1268  0.1530 -0.1561
    1W        W53604   1.623   2.702   1.157 -0.0607  0.1741 -0.6405
    1W        W53605   4.011   3.175   8.636 -0.0625  0.1181 -0.2131
    1W        W53606   8.677  12.586   2.860 -0.0918 -0.1540 -0.0237
    1W        W53607   9.839   2.188   0.554 -0.0415 -0.3150  0.0614
    1W        W53608  16.700  20.922   7.522  0.3530 -0.0685 -0.0033
    1W        W53609  14.427   5.638   7.785  0.1783 -0.0688  0.0164
    1W        W53610  28.955  25.740   1.793  0.0019 -0.0769 -0.1251
    1W        W53611  12.191   0.591   9.034  0.0346  0.3440  0.0215
    1W        W53612  11.614  23.603   8.838  0.0727  0.1254 -0.1910
    1W        W53613   5.269   9.493   0.115 -0.3445 -0.1744  0.0692
    1W        W53614  17.721  26.376   7.211 -0.0626 -0.0276  0.0076
    1W        W53615   1.196   2.520   1.336  0.0553  0.3501 -0.1276
    1W        W53616   8.042  27.201   2.265  0.3029 -0.1560  0.1132
    1W        W53617  27.303  14.428   7.619 -0.0845 -0.4268  0.0094
    1W        W53618  18.171  27.857   3.140 -0.1715  0.3768 -0.0435
    1W        W53619   8.200   9.246   3.181 -0.2859 -0.3484  0.2357
    1W        W53620   7.524  22.018   6.143 -0.0495 -0.1889  0.0381
    1W        W53621   1.305  10.434   0.787  0.2121  0.0649 -0.0733
    1W        W53622  16.370   8.527   1.724  0.1146 -0.1589  0.0463
    1W        W53623  27.928  17.034   1.831 -0.2369 -0.2124  0.2098
    1W        W53624  18.950  25.844   3.800 -0.1823  0.0051 -0.0449
    1W        W53625  26.020  13.722   6.800 -0.0234 -0.0138 -0.0976
    1W        W53626   0.895   8.028   8.495  0.0543  0.0869 -0.2575
    1W        W53627  17.431   2.689   3.400 -0.0886 -0.0717 -0.1194
    1W        W53628   6.235  14.883   9.130  0.1101 -0.0197 -0.0737
    1W        W53629  16.577  19.851   8.722 -0.0626 -0.3087  0.0860
    1W        W53630  25.708   5.559   8.372 -0.1973 -0.0252 -0.0594
    1W        W53631  12.664   7.469   8.803  0.1123  0.1616 -0.2563
    1W        W53632  15.849  28.342   7.269  0.1880 -0.0437 -0.0902
    1W        W53633  29.536  11.529   0.672  0.0920 -0.1065  0.3451
    1W        W53634  25.947   0.902   8.450 -0.2190 -0.2232 -0.0822
    1W        W53635  21.374  23.298   2.217  0.1573 -0.1008 -0.0661
    1W        W53636  20.954  13.678   8.448  0.1928  0.1503 -0.0702
    1W        W53637   1.086  13.111   5.391  0.1431  0.2309  0.2822
    1W        W53638   1.633  14.545   1.847  0.3109 -0.0077 -0.1666
    1W        W53639  20.446  25.798   9.097  0.1026 -0.2565  0.0007
    1W        W53640  24.291  20.968   6.932 -0.3838 -0.0087  0.2214
    1W        W53641  27.197  20.000   1.093  0.1905  0.3197  0.3912
    1W        W53642   7.674   2.092   8.251  0.1402 -0.0414 -0.0912
    1W        W53643  24.184  23.357   0.270  0.0286  0.0776 -0.1110
    1W        W53644   0.648  26.176   8.608  0.1154  0.0141 -0.0293
    1W        W53645   3.168   3.881   8.610 -0.0870  0.1698 -0.0990
    1W        W53646  27.717   2.344   9.320 -0.0405  0.1321 -0.2007
    1W        W53647  10.483  20.319   0.655  0.2706 -0.1610  0.2356
    1W        W53648  13.754   2.640   0.409 -0.1143  0.2669 -0.1905
    1W        W53649  24.480  21.867   5.927 -0.0061  0.0302  0.1762
    1W        W53650   5.794  27.040   7.182 -0.2298  0.0755 -0.4148
    1W        W53651   7.026   3.616   2.254 -0.2722  0.0726  0.0248
    1W        W53652  26.245  23.505   1.570 -0.1708 -0.1187 -0.2465
    1W        W53653  21.960  24.918   2.006  0.2302  0.1463 -0.1263
    1W        W53654   4.073   4.426   0.830  0.0960 -0.1227 -0.0692
    1W        W53655  19.688  23.096   6.552 -0.1188 -0.0023 -0.1299
    1W        W53656  30.001   9.363   8.039 -0.1236 -0.0557 -0.1589
    1W        W53657  24.684  22.331   8.403 -0.1904  0.0190 -0.3532
    1W        W53658   8.667  11.091   0.350 -0.2040 -0.2934 -0.1031
    1W        W53659  13.775  13.026   2.531 -0.0601  0.0032  0.1457
    1W        W53660   3.573   3.956   7.726 -0.1705 -0.1072  0.2435
    1W        W53661   3.773  14.780   9.378 -0.0305  0.0429  0.0365
    1W        W53662  26.883  11.983   2.029 -0.0471  0.0441  0.0025
    1W        W53663   3.314  16.036   7.573  0.2317  0.3190  0.2177
    1W        W53664  18.324   6.496   7.506 -0.0538 -0.1636 -0.1723
    1W        W53665  16.050  29.613   0.914 -0.0821  0.0701  0.3200
    1W        W53666  16.008  24.499   2.333 -0.2025 -0.2051 -0.2170
    1W        W53667  26.903  25.243   7.237 -0.0404  0.0701 -0.0726
    1W        W53668  12.134   4.164   1.158 -0.2329 -0.1728  0.2896
    1W        W53669  28.659  28.821   2.710 -0.2154 -0.2016 -0.0633
    1W        W53670   3.956   9.211   2.072  0.0198 -0.2986  0.0101
    1W        W53671   5.788  22.427   0.291  0.0416  0.1244 -0.1364
    1W        W53672  24.334   3.300   9.032  0.1102  0.2422 -0.0678
    1W        W53673  13.678  25.412   7.447  0.0279  0.3374  0.1826
    1W        W53674  28.189   0.303   7.901 -0.0353 -0.1580 -0.0029
    1W        W53675  21.800   0.573   7.221  0.0100 -0.0168  0.0014
    1W        W53676  12.055   7.706   1.736  0.0871  0.2931 -0.1319
    1W        W53677  13.421  23.397   7.627  0.0594 -0.1619 -0.4292
    1W        W53678   8.842  22.970   0.422  0.0387 -0.1277  0.1874
    1W        W53679  12.592  18.159   1.996 -0.1806  0.1232  0.1043
    1W        W53680   8.882  26.962   7.359  0.0630 -0.1743  0.0949
    1W        W53681  26.405   8.091   0.662 -0.0811 -0.3942 -0.3450
    1W        W53682  12.892   1.588   8.819  0.3672 -0.4692  0.2670
    1W        W53683  22.930  16.556   8.441  0.1670 -0.1888 -0.3107
    1W        W53684  23.773  14.143   8.641  0.3772  0.0819 -0.0374
    1W        W53685   7.890  12.370   7.965 -0.1776 -0.1723  0.1338
    1W        W53686  14.080   3.269   2.649 -0.2421 -0.2000 -0.1419
    1W        W53687  26.354  12.968   6.430  0.2887  0.0132  0.0604
    1W        W53688  11.639   6.133   3.136 -0.1267  0.0327 -0.1789
    1W        W53689  21.081  27.026   0.795 -0.0729  0.3735 -0.1659
    1W        W53690  17.070  15.905   0.789 -0.0542 -0.0659  0.1722
    1W        W53691   6.962   5.193   0.580  0.0254 -0.0482  0.2283
    1W        W53692  24.095   0.312   2.619 -0.0288  0.1009 -0.0581
    1W        W53693  29.914   8.339   8.542  0.5330  0.2221 -0.1497
    1W        W53694  24.252  17.165   7.822 -0.0088  0.1287  0.0372
    1W        W53695  10.571  27.460   0.629 -0.0423 -0.2118 -0.1566
    1W        W53696  15.681  22.716   0.167 -0.4222  0.1275  0.0160
    1W        W53697  16.562   7.728   2.241  0.0189 -0.3874  0.0322
    1W        W53698  20.249   4.319   0.680 -0.2003  0.0872 -0.1614
    1W        W53699  20.541  21.407   2.134  0.1019  0.1108  0.1328
    1W        W53700  16.378   8.096   1.931 -0.0311  0.0461 -0.3989
    1W        W53701  15.860  12.482   7.078 -0.0520  0.0373  0.1718
    1W        W53702   7.425   9.301   0.603 -0.3751 -0.0807 -0.3401
    1W        W53703  27.006  21.278   9.324 -0.1079  0.1735 -0.0045
    1W        W53704  13.923  23.014   2.099 -0.0634  0.4791 -0.0001
    1W        W53705  24.737  24.170   0.029 -0.0637 -0.0116  0.0909
    1W        W53706   9.335   4.578   8.962  0.0878 -0.0900  0.1167
    1W        W53707  12.239  20.799   7.560  0.0446  0.0266 -0.3542
    1W        W53708   7.198  24.340   0.439  0.1573 -0.1829 -0.2097
    1W        W53709  12.848  24.382   0.014  0.2004 -0.2919  0.1868
    1W        W53710  16.580  13.477   1.494 -0.1177  0.2703 -0.1611
    1W        W53711  20.895  28.696   7.782  0.2697  0.0639  0.0226
    1W        W53712   3.004   9.995   8.209  0.1206  0.1298  0.0068
    1W        W53713  14.563  28.100   9.068  0.0960 -0.2208 -0.0607
    1W        W53714  26.530   3.414   8.679 -0.1098 -0.0789 -0.0774
    1W        W53715   9.881  27.112   2.282  0.0183 -0.1000  0.0780
    1W        W53716   5.464   0.723   2.724  0.0579  0.0819  0.1814
    1W        W53717  10.902  11.705   8.964 -0.2670 -0.1196  0.2544
    1W        W53718  28.355  13.849   9.051  0.1365 -0.2253 -0.0547
    1W        W53719  18.464  29.164   0.526  0.3887 -0.1918 -0.1283
    1W        W53720  17.516   2.881   7.553 -0.1094  0.0393 -0.0487
    1W        W53721  20.292   4.756   9.302 -0.2497  0.0270 -0.0860
    1W        W53722  28.368  24.308   1.971  0.3402 -0.0769  0.0943
    1W        W53723  23.189   6.737   7.604 -0.1472  0.2218  0.2452
    1W        W53724  28.594   9.771   0.071  0.1091  0.0381  0.4704
    1W        W53725  14.838  19.200   7.824  0.0339  0.1306  0.1361
    1W        W53726   8.840   8.622   3.355  0.0665 -0.1459 -0.0305
    1W        W53727  20.796  25.808   1.480  0.1537  0.0722  0.0583
    1W        W53728  16.159  23.560   7.195 -0.1812 -0.1668 -0.1989
    1W        W53729   3.067   9.702   6.910 -0.0332 -0.0181 -0.1738
    1W        W53730   4.474   4.780   0.880  0.3614  0.4471  0.1735
    1W        W53731  15.295   7.569   3.111  0.0767  0.0390 -0.0612
    1W        W53732  11.906  29.734   9.287 -0.2120 -0.0517 -0.3255
    1W        W53733  22.202   2.752   1.256  0.0979  0.1013  0.3271
    1W        W53734   3.815  11.138   1.012  0.1967  0.0777 -0.0739
    1W        W53735   3.150   7.389   2.207 -0.0549 -0.3049 -0.1268
    1W        W53736   3.829   4.971   8.720  0.0882 -0.2907  0.1094
    1W        W53737  24.705  11.020   9.357  0.3521  0.1199  0.2295
    1W        W53738   2.701   0.604   1.200  0.1996 -0.1400 -0.3746
    1W        W53739   8.667   4.039   1.827  0.1382  0.1574 -0.0407
    1W        W53740  28.328  22.472   7.559 -0.0945 -0.1979 -0.1607
    1W        W53741  10.752   6.198   3.639  0.3675  0.3189  0.0813
    1W        W53742  24.549  19.417   0.333  0.0022  0.0596  0.0846
    1W        W53743  16.558  17.214   1.824 -0.0540 -0.2303 -0.3471
    1W        W53744  16.198  19.627   0.773 -0.4255 -0.1414  0.0701
    1W        W53745  16.567  24.071   6.198 -0.1088 -0.0704 -0.0944
    1W        W53746  21.307   4.799   0.269 -0.0402  0.5393 -0.2697
    1W        W53747  24.893   8.798   9.340  0.3505  0.2593  0.0563
    1W        W53748  18.943  10.368   1.454 -0.0169 -0.0446  0.1934
    1W        W53749  18.668   4.750   2.027  0.2415 -0.0371 -0.0480
    1W        W53750  29.822   7.452   7.623  0.0203 -0.2955  0.1917
    1W        W53751  15.534   4.812   0.168  0.0372 -0.1540 -0.0432
    1W        W53752   4.046   6.606   8.491  0.1934 -0.0514 -0.2756
    1W        W53753   8.946  28.802   9.373  0.1344 -0.2963  0.0590
    1W        W53754   8.636  13.793   6.668 -0.0155 -0.1804  0.0100
    1W        W53755  23.250  19.699   8.141 -0.1565  0.1748  0.1913
    1W        W53756   1.971   1.928   0.479  0.3069 -0.2750  0.4933
    1W        W53757  27.142   8.788   9.073  0.1446 -0.0919 -0.4174
    1W        W53758  10.219  22.129   0.891  0.2472 -0.3152  0.2521
    1W        W53759  19.309   8.991   6.714  0.2423 -0.0433  0.2703
    1W        W53760  22.164   5.552   2.567  0.0573 -0.1766 -0.3148
    1W        W53761   3.078  27.425   8.105 -0.2894 -0.0763 -0.1062
    1W        W53762  14.516   2.699   1.501  0.1034  0.0336  0.2358
    1W        W53763   7.533   4.923   0.967  0.3544  0.2604  0.2544
    1W        W53764  10.319  12.065   7.537 -0.3997  0.1033  0.1308
    1W        W53765   5.959   2.196   1.545 -0.0298 -0.0811 -0.2302
    1W        W53766  20.236  13.941   7.290  0.2108  0.0667 -0.1445
    1W        W53767  21.776  17.968   6.926  0.0097  0.3460 -0.0680
    1W        W53768  22.732   4.205   7.989 -0.1341 -0.1307 -0.4362
    1W        W53769   9.338   9.132   1.607  0.1479  0.0193 -0.0059
    1W        W53770   0.419  15.382   8.825 -0.2216 -0.0017  0.1383
    1W        W53771  22.296   1.995   2.172 -0.1335  0.0196  0.4010
    1W        W53772  18.612  13.274   1.877 -0.1214 -0.1628  0.0618
    1W        W53773  14.347  28.908   8.240 -0.0280 -0.0941  0.1795
    1W        W53774   0.108   5.884   2.091 -0.2130 -0.0890 -0.2406
    1W        W53775  21.019   1.336   9.266  0.1227 -0.0495 -0.0856
    1W        W53776  13.812  15.487   8.827 -0.1758  0.2917 -0.2603
    1W        W53777   5.442  12.316   9.041 -0.4658  0.1873 -0.1447
    1W        W53778   3.536   8.841   7.797  0.0420 -0.0143 -0.1569
    1W        W53779  10.517   3.730   2.318 -0.0778  0.2019  0.0690
    1W        W53780  23.184  14.456   0.465 -0.1271 -0.2020  0.2360
    1W        W53781  10.456  20.731   7.754 -0.0109  0.1845  0.1219
    1W        W53782   3.484  14.534   1.703 -0.0540 -0.1622 -0.1069
    1W        W53783   8.159  28.923   1.060  0.2843 -0.2619  0.1317
    1W        W53784  25.724   0.445   9.376  0.0127  0.1881  0.1315
    1W        W53785  23.355   9.208   6.643 -0.1246  0.1445  0.0629
    1W        W53786   3.673  24.031   8.988  0.0678  0.0748 -0.0754
    1W        W53787  14.766  16.876   9.275 -0.1718 -0.1975 -0.1217
    1W        W53788   3.293  29.120   8.291 -0.2104  0.0358  0.0941
    1W        W53789  11.241  12.468   2.281 -0.3031 -0.3603 -0.2396
    1W        W53790  27.959  29.997   1.621  0.0402  0.3387  0.1574
    1W        W53791  24.171  18.650   7.649 -0.0919 -0.0738 -0.4492
    1W        W53792  21.116  24.253   7.686 -0.0441 -0.1884  0.3318
    1W        W53793  11.225  30.014   7.469  0.0691 -0.3170 -0.0061
    1W        W53794  23.770   8.733   7.153 -0.0208  0.3962 -0.0702
    1W        W53795   5.538  13.452   7.546 -0.1842 -0.1775  0.0241
    1W        W53796  11.262   8.772   2.976  0.3271  0.1843  0.0036
    1W        W53797   1.681  25.672   7.994 -0.1705  0.2165  0.0198
    1W        W53798  27.281  26.902   0.247 -0.0443  0.0566 -0.0237
    1W        W53799  24.522  18.827   8.177 -0.0806  0.0246 -0.2723
    1W        W53800   7.441  27.451   7.140 -0.0616 -0.3477  0.3230
    1W        W53801   9.631   2.838   6.871  0.0500  0.1774  0.4263
    1W        W53802  17.009  16.662   1.579  0.1569  0.0857 -0.1669
    1W        W53803   5.964  23.881   6.177  0.3680 -0.0482 -0.0644
    1W        W53804  21.686   3.295   0.232  0.0379  0.0888 -0.1573
    1W        W53805   2.002  16.326   0.461 -0.0199 -0.1085 -0.0200
    1W        W53806  13.919   5.622   8.089 -0.0563  0.1808  0.1328
    1W        W53807  14.105  23.438   2.311  0.0946  0.0891 -0.0992
    1W        W53808  19.331   4.960   1.730  0.0181  0.1205 -0.2229
    1W        W53809   4.306  18.481   8.571 -0.3046 -0.1975  0.0226
    1W        W53810  29.197  20.994   0.385  0.0165 -0.5187 -0.1115
    1W        W53811  18.267  26.980   7.837 -0.0473 -0.2517 -0.1114
    1W        W53812   9.852  11.753   0.575  0.0729 -0.2103  0.0988
    1W        W53813  25.788  12.999   5.256  0.1279 -0.2432  0.2481
    1W        W53814  26.205  17.463   7.354 -0.0345  0.0235 -0.1164
    1W        W53815  10.190  28.490   6.419  0.1435 -0.4128  0.1253
    1W        W53816  27.771  15.794   9.342 -0.4144  0.3324  0.1594
    1W        W53817  18.575  18.638   6.590  0.2664 -0.2128 -0.2629
    1W        W53818   2.815  27.762   8.413 -0.3881 -0.0282 -0.3590
    1W        W53819  28.224  19.260   7.979 -0.1614  0.0229 -0.1550
    1W        W53820  21.999   1.455   6.303 -0.1801  0.1045 -0.1519
    1W        W53821   6.181   9.822   7.821 -0.0621 -0.1868 -0.0346
    1W        W53822  10.881  12.925   1.703  0.1197 -0.0296 -0.1430
    1W        W53823  29.072  28.287   0.553  0.1990 -0.0534  0.0482
    1W        W53824  18.659  22.287   9.118 -0.1242  0.1866  0.0351
    1W        W53825  26.601   1.906   8.586 -0.2158  0.1342 -0.1015
    1W        W53826   2.323  15.215   7.952  0.0576  0.0615  0.0857
    1W        W53827   2.279  24.524   0.387 -0.1466  0.1785 -0.3638
    1W        W53828   8.635  27.748   3.667  0.0938  0.2882  0.0968
    1W        W53829  24.257   1.977   2.280  0.2900  0.1493 -0.0874
    1W        W53830   0.650   4.939   2.186  0.2018 -0.2165  0.2107
    1W        W53831  29.290  28.069   7.380 -0.2202  0.2742  0.2767
    1W        W53832   8.221  27.019   7.649  0.3989 -0.0264 -0.2434
    1W        W53833   1.535  28.097   2.162  0.0347  0.0592  0.1656
    1W        W53834  16.820   0.404   9.150  0.1824 -0.3738 -0.1878
    1W        W53835  21.364  28.099   2.874  0.3445  0.1059 -0.0033
    1W        W53836  28.864   4.724   1.621 -0.2115 -0.2955 -0.0314
    1W        W53837  11.112   0.254   7.064  0.0926 -0.1822  0.1261
    1W        W53838  14.436   7.479   3.135 -0.0056  0.2626 -0.2723
    1W        W53839  25.765   2.205   0.451  0.0268 -0.2382  0.1553
    1W        W53840  26.682   7.163   8.190 -0.1781 -0.3700 -0.0130
    1W        W53841   9.164  23.390   8.335  0.3285  0.0780 -0.1135
    1W        W53842   1.086  14.027   8.903  0.0742 -0.0168  0.0957
    1W        W53843  20.907  29.897   0.065  0.0447 -0.2427 -0.0415
    1W        W53844  15.240  10.332   9.102 -0.2663 -0.1411 -0.3268
    1W        W53845   1.003  16.824   1.790 -0.1797  0.1498  0.4455
    1W        W53846  28.707  22.905   7.329  0.1468 -0.0234  0.1123
    1W        W53847   2.036  23.470   6.989 -0.3911  0.1328 -0.0257
    1W        W53848   8.263  19.498   1.094  0.1972  0.1603 -0.0969
    1W        W53849  15.895  20.990   7.922 -0.0874  0.1042  0.0225
    1W        W53850   3.134  16.938   0.844 -0.1747  0.4212  0.0941
    1W        W53851  10.261   5.886   0.006 -0.0022 -0.2364  0.1098
    1W        W53852  27.759  21.920   8.007  0.0860  0.1139 -0.0376
    1W        W53853   0.744  18.512   9.284  0.1223 -0.2525 -0.0568
    1W        W53854   8.599  12.558   7.781 -0.0560  0.0527 -0.3224
    1W        W53855   1.444   6.269   3.296  0.0484  0.0033 -0.0927
    1W        W53856  25.484  25.366   1.898  0.1884  0.2108  0.1249
    1W        W53857  14.216  23.545   1.194  0.0437 -0.1617  0.1978
    1W        W53858   4.485  17.640   8.335  0.1634  0.0767 -0.3792
    1W        W53859  11.677  26.477   7.829  0.1407 -0.6423 -0.0755
    1W        W53860   5.435  10.598   0.801  0.1435  0.4060 -0.1754
    1W        W53861   8.799  17.122   8.367  0.0633  0.0597 -0.0027
    1W        W53862   9.728  15.737   0.126 -0.2370  0.3472 -0.1325
    1W        W53863  21.246   2.523   1.479 -0.2185 -0.0587  0.0245
    1W        W53864  24.142  17.102   8.760  0.0510 -0.1348 -0.2636
    1W        W53865  19.266  23.449   7.145 -0.2067  0.2414  0.2164
    1W        W53866  21.191   8.954   2.055  0.0370 -0.1395 -0.0097
    1W        W53867  21.818  25.809   1.854  0.0956 -0.1300 -0.0506
    1W        W53868   1.996   4.660   7.989  0.2423 -0.1720 -0.0987
    1W        W53869  28.093   5.433   6.956  0.1660  0.0512 -0.0259
    1W        W53870   8.625   3.679   7.970  0.0807  0.2280  0.3605
    1W        W53871  20.122   4.279   1.152  0.0811 -0.0561 -0.1603
    1W        W53872  10.471   4.222   1.750 -0.1608 -0.2547 -0.1362
    1W        W53873   8.197  11.404   3.356  0.1831  0.0155  0.1272
    1W        W53874   4.826   2.435   1.843 -0.0912 -0.4647 -0.0582
    1W        W53875   9.908  29.646   3.370  0.1047 -0.1622 -0.3049
    1W        W53876  23.757  25.601   8.101 -0.0079 -0.2583 -0.1894
    1W        W53877  24.638  27.861   2.964 -0.1027  0.2082 -0.1937
    1W        W53878   0.653  16.915   8.641 -0.1401  0.0534 -0.0955
    1W        W53879   6.873   9.563   0.239  0.0502  0.1815 -0.0007
    1W        W53880  21.234  21.449   1.737  0.2867  0.0975  0.1417
    1W        W53881  17.011  14.821   8.417 -0.0404 -0.2751  0.1148
    1W        W53882  14.244   5.691   2.651  0.1087  0.2303  0.0062
    1W        W53883   1.220  26.782   0.904  0.2754 -0.2492  0.2175
    1W        W53884  20.138   9.050   7.176  0.1985  0.4262 -0.1460
    1W        W53885  12.690  18.508   0.585  0.1731  0.0272 -0.3107
    1W        W53886   0.688  11.806   6.232  0.2176  0.0636 -0.1014
    1W        W53887  24.010   2.724   1.699  0.0863 -0.0552 -0.1905
    1W        W53888  17.059  17.326   7.965  0.2999  0.0846 -0.0191
    1W        W53889  19.892   6.402   2.658 -0.1162  0.0489 -0.0213
    1W        W53890  28.234   4.283   1.896  0.0450 -0.0178 -0.0328
    1W        W53891  16.274  28.592   6.780  0.2338 -0.1813  0.0738
    1W        W53892   8.458   0.552   6.696 -0.3331  0.0555 -0.1347
    1W        W53893  11.920  26.492   0.312 -0.1234 -0.1003  0.0507
    1W        W53894  13.965  14.574   7.795 -0.1980  0.2398  0.0347
    1W        W53895  11.269  14.745   2.407  0.1539 -0.0954  0.0804
    1W        W53896   4.855  30.120   3.234  0.1102 -0.0787  0.2146
    1W        W53897  10.714   5.515   0.110 -0.0271  0.0155 -0.1749
    1W        W53898  23.343  12.919   1.980  0.1983 -0.3293 -0.0883
    1W        W53899   9.438   3.249   6.910 -0.0586  0.1891 -0.2294
    1W        W53900  24.876   6.732   1.058 -0.0047 -0.0827  0.4321
    1W        W53901  18.164  11.675   0.807 -0.2293 -0.2242  0.1145
    1W        W53902  15.750  18.987   7.010  0.0314 -0.4101 -0.1740
    1W        W53903  26.480  11.030   7.614  0.0994  0.1413 -0.0958
    1W        W53904  14.490  14.622   0.471 -0.0011  0.3017 -0.1320
    1W        W53905  25.318   4.690   7.315  0.1778 -0.2146  0.0744
    1W        W53906   0.911  20.688   6.593 -0.0069 -0.2406 -0.1183
    1W        W53907  29.235  20.680   7.358  0.1071 -0.0768 -0.2197
    1W        W53908   5.699   3.248   8.899 -0.1790 -0.1328  0.1591
    1W        W53909  21.760   7.309   9.179 -0.0193  0.0420 -0.1694
    1W        W53910   8.761   7.611   2.803  0.0108  0.0161 -0.0532
    1W        W53911  25.335  20.217   2.471 -0.0049  0.2231  0.0158
    1W        W53912   3.483  27.074   3.024 -0.2440 -0.1144 -0.0669
    1W        W53913   9.658  11.210   2.226  0.2025  0.1014  0.1612
    1W        W53914   7.288  18.501   7.661 -0.0132 -0.0538  0.1739
    1W        W53915  29.734  11.047   8.658  0.2253  0.0986 -0.1367
    1W        W53916  15.909   3.659   7.747 -0.0839 -0.4676 -0.0107
    1W        W53917  25.686  13.857   1.205  0.0579  0.1597  0.0853
    1W        W53918  18.774  23.051   6.358  0.1090  0.3038 -0.1607
    1W        W53919  17.243  18.465   8.029  0.3148 -0.0787 -0.1947
    1W        W53920   7.579   4.934   7.566  0.0338  0.0744 -0.2654
    1W        W53921   2.875   9.509   1.954  0.1377  0.2366 -0.0491
    1W        W53922  27.970  23.372   7.639  0.0003  0.0612  0.1621
    1W        W53923  17.205  23.699   7.732  0.1837  0.2382  0.2006
    1W        W53924  18.802  24.993   0.879 -0.2666  0.4088  0.2472
    1W        W53925  20.189   6.789   2.745  0.0309  0.2398 -0.3804
    1W        W53926  28.648  26.807   9.180 -0.2029 -0.1525 -0.1593
    1W        W53927  24.367   4.375   2.908  0.0455 -0.1609  0.3571
    1W        W53928  25.306  28.352   8.980 -0.2170  0.0271  0.0249
    1W        W53929  16.777  29.989   3.172  0.2907 -0.2275  0.1192
    1W        W53930  25.526   5.357   3.103 -0.2604  0.0812 -0.0087
    1W        W53931  15.114  13.283   1.729 -0.1891 -0.2204 -0.0412
    1W        W53932  15.403  22.759   2.806 -0.1136  0.1474 -0.0154
    1W        W53933  16.926  28.474   0.885 -0.0625 -0.1071 -0.3735
    1W        W53934  18.296   9.677   0.468  0.1628 -0.1552 -0.1026
    1W        W53935  26.402   6.332   8.367 -0.4190  0.2489  0.0676
    1W        W53936  15.631  12.474   1.080 -0.1593  0.0830 -0.1927
    1W        W53937  19.427  11.533   6.374 -0.1558  0.1774  0.5652
    1W        W53938   6.939  26.463   7.496 -0.0096 -0.0660 -0.0986
    1W        W53939  20.842  13.062   1.386 -0.1535  0.2858  0.0766
    1W        W53940   8.563  27.371   9.166 -0.1584 -0.1750  0.0982
    1W        W53941  17.595  22.832   9.099  0.0555 -0.4883 -0.0858
    1W        W53942   8.880  12.464   7.074  0.0443  0.0920  0.1976
    1W        W53943  20.283  19.710   0.106  0.0759  0.2434  0.1732
    1W        W53944  18.181  21.930   2.529 -0.4181 -0.0702 -0.0084
    1W        W53945  23.416   0.390   2.410  0.0177 -0.1341  0.0366
    1W        W53946  11.852  28.217   0.073 -0.0894  0.0960 -0.0303
    1W        W53947  14.712  13.735   2.555  0.0398 -0.2845  0.3108
    1W        W53948   1.351   8.186   6.628  0.1953  0.1684  0.0809
    1W        W53949  20.750  19.938   8.356 -0.0471  0.2079 -0.0087
    1W        W53950   8.614  15.294   7.140  0.2344 -0.1035  0.1489
    1W        W53951  29.055   0.266   0.428 -0.3196 -0.2075 -0.2610
    1W        W53952  18.768  25.867   9.147 -0.1023 -0.0501 -0.1520
    1W        W53953  14.737   0.300   9.052  0.0671  0.0302 -0.1794
    1W        W53954  17.791  19.333   8.070 -0.1410 -0.4659  0.2979
    1W        W53955  19.321  22.931   0.871  0.1766 -0.0089 -0.0648
    1W        W53956  15.637  17.812   6.867  0.0064 -0.2815 -0.2324
    1W        W53957  27.650  13.525   9.331  0.2146  0.2020  0.1040
    1W        W53958  19.329  17.093   1.881  0.1557  0.3131  0.2285
    1W        W53959  10.596  10.483   0.623  0.1656  0.0821 -0.0833
    1W        W53960  11.184  25.941   3.228  0.0456  0.0957 -0.3083
    1W        W53961  15.835  23.232   8.036 -0.1736  0.1572 -0.0996
    1W        W53962  11.610  10.000   7.769  0.3436 -0.1740  0.3259
    1W        W53963   1.927  24.915   8.671 -0.0325  0.4414  0.2162
    1W        W53964  28.380  12.228   8.161  0.2766 -0.0465 -0.0012
    1W        W53965   5.174  10.521   6.944  0.0012  0.1736 -0.0605
    1W        W53966  26.799   8.616   6.956 -0.0426  0.1922 -0.0953
    1W        W53967  22.707  15.871   7.469  0.0234 -0.0672  0.1488
    1W        W53968   2.366   9.748   2.005 -0.2652  0.0428  0.2095
    1W        W53969  28.274  27.592   9.038 -0.1290 -0.1954 -0.2299
    1W        W53970   9.531  23.659   2.060 -0.0812  0.0903 -0.0972
    1W        W53971  20.555  20.037   7.867 -0.2107  0.0202  0.2225
    1W        W53972   5.497   1.584   8.883  0.1206 -0.2858 -0.0995
    1W        W53973  24.245  29.124   2.967 -0.0860 -0.1653 -0.0765
    1W        W53974  11.448  24.502   2.354  0.0694 -0.0899 -0.1378
    1W        W53975  10.415  25.274   2.637 -0.0556 -0.1723  0.0340
    1W        W53976   6.339  28.342   8.890 -0.0330 -0.2165  0.3090
    1W        W53977   5.290  27.247   1.175 -0.0870 -0.1100 -0.2200
    1W        W53978  14.661   0.823   8.849  0.1200  0.0796 -0.3422
    1W        W53979  28.925  17.592   5.595 -0.4351  0.2075 -0.0607
    1W        W53980   8.122  28.474   1.237 -0.1707  0.2218 -0.2551
    1W        W53981   9.550   5.511   0.068 -0.1869 -0.0740  0.1436
    1W        W53982  27.104  23.583   2.660 -0.1281  0.1230  0.0490
    1W        W53983  14.380   5.530   3.585 -0.3428  0.5542 -0.2771
    1W        W53984  23.420  21.895   0.603 -0.0324  0.1105  0.2128
    1W        W53985  24.566  21.447   7.922 -0.1259 -0.0807 -0.1087
    1W        W53986  28.564  19.850   8.614 -0.0075  0.2154  0.2042
    1W        W53987   4.716  14.126   0.153 -0.2462 -0.0151 -0.1504
    1W        W53988   8.401  21.881   5.743 -0.2782  0.1292 -0.1446
    1W        W53989  15.396  14.679   7.340  0.1768 -0.2546  0.0187
    1W        W53990  27.733  22.012   6.895  0.2156 -0.2149 -0.1223
    1W        W53991   8.578  10.815   8.377 -0.0450  0.0611  0.0408
    1W        W53992   6.672  21.333   5.794  0.1497 -0.0123 -0.1768
    1W        W53993  17.642  25.065   2.762  0.0461  0.0212  0.0099
    1W        W53994  21.799   9.568   0.559  0.1312  0.2622  0.0670
    1W        W53995  12.827  15.517   7.749 -0.1367  0.1352 -0.3804
    1W        W53996   7.798   0.191   8.818 -0.3376  0.1555  0.0645
    1W        W53997  19.915   5.520   3.213 -0.2176  0.0491 -0.0002
    1W        W53998  27.249  27.292   1.279  0.1947 -0.2530  0.1484
    1W        W53999  12.425  17.682   1.067 -0.4677 -0.1723  0.0100
    1W        W54000  11.756  15.395   8.838 -0.3139 -0.1102 -0.1839
    1W        W54001  19.685  13.177   1.256  0.0235  0.0311  0.1112
    1W        W54002  17.538  25.775   2.440 -0.1545 -0.1393  0.0363
    1W        W54003  20.625  27.589   2.377  0.0546  0.1443 -0.0196
    1W        W54004  10.100  24.234   1.531  0.0648  0.0010 -0.1616
    1W        W54005   2.064  28.894   2.396 -0.0300 -0.2041  0.2174
    1W        W54006  25.715   5.891   0.496  0.2653 -0.1385  0.2786
    1W        W54007  27.092   1.379   8.185  0.2051  0.3002  0.1994
    1W        W54008  27.913  26.056   6.796  0.2137  0.0103  0.2930
    1W        W54009  19.670  17.302   7.977 -0.1412  0.2128  0.2138
    1W        W54010  15.547   1.673   2.089 -0.1952 -0.2228  0.2648
    1W        W54011   4.062  13.976   6.859 -0.1884 -0.1309 -0.2312
    1W        W54012   3.599  24.421   7.245  0.0454  0.1906 -0.1544
    1W        W54013   9.006   4.283   0.370 -0.4280  0.2189  0.2183
    1W        W54014  20.782  27.371   6.525 -0.1024 -0.2738  0.0074
    1W        W54015  18.667  24.724   7.973  0.1562  0.0916  0.1765
    1W        W54016   1.868  25.678   7.102  0.0763 -0.0624 -0.1173
    1W        W54017   8.207  20.775   0.345  0.0581  0.3010 -0.0690
    1W        W54018  13.878   9.886   7.488 -0.4936  0.2146 -0.1808
    1W        W54019  21.649  14.534   7.943  0.1101  0.2921  0.1126
    1W        W54020  15.042  15.373   7.948  0.2258  0.2893 -0.0854
    1W        W54021   1.991  17.943   6.107 -0.0807 -0.2647  0.4585
    1W        W54022   0.108  18.672   7.045  0.0813  0.1156  0.1609
    1W        W54023   9.497  11.831   7.438 -0.0530  0.0156 -0.2127
    1W        W54024  28.565   9.400   8.597 -0.0566  0.1682 -0.0820
    1W        W54025  26.739  18.985   0.120 -0.0194 -0.0292 -0.1279
    1W        W54026   2.087   0.585   7.491 -0.0101 -0.1353  0.2937
    1W        W54027   9.405   1.994   0.206 -0.0341  0.0414  0.2695
    1W        W54028  22.956  22.302   1.219 -0.0206 -0.2528  0.0676
    1W        W54029   3.553   0.677   7.477 -0.0933 -0.2301 -0.0070
    1W        W54030   5.020   2.383   8.497 -0.0837 -0.1970 -0.2282
    1W        W54031   0.963  26.286   7.801 -0.0697 -0.0867  0.2184
    1W        W54032  22.272  18.552   6.036  0.0261 -0.0852  0.1685
    1W        W54033  21.108  20.989   8.316  0.0795 -0.0796 -0.1476
    1W        W54034  19.010  15.347   1.392 -0.1854  0.4409  0.2198
    1W        W54035   0.043  26.090   7.315  0.1240  0.1285 -0.0425
    1W        W54036  28.377   8.607   0.229 -0.2279  0.1189  0.2081
    1W        W54037  15.217  17.557   1.107 -0.2105 -0.1276  0.0149
    1W        W54038  16.531  16.100   6.652 -0.0862 -0.1603 -0.0728
    1W        W54039  12.170  21.405   7.753 -0.0405 -0.0784 -0.1628
    1W        W54040  28.859   3.520   0.633  0.0986 -0.1277 -0.0538
    1W        W54041  22.697   0.368   0.144 -0.1361 -0.3190 -0.0111
    1W        W54042  28.958  10.787   9.381  0.0003 -0.3092 -0.3894
    1W        W54043   4.392  15.650   9.010 -0.0038  0.1280  0.5226
    1W        W54044  17.563  26.830   7.132  0.1668 -0.1071  0.2822
    1W        W54045  14.186   1.978   7.410 -0.2834 -0.2068  0.0553
    1W        W54046   6.594  18.169   0.030 -0.0843 -0.0135  0.1184
    1W        W54047  18.001  14.639   1.704  0.2967  0.2979  0.0821
    1W        W54048  11.861   0.792   2.967 -0.1393 -0.0505 -0.0193
    1W        W54049   7.061  25.582   1.858 -0.0717  0.0083 -0.0511
    1W        W54050   8.141  26.295   7.327  0.2172 -0.2399 -0.0993
    1W        W54051   8.472   8.109   0.439 -0.0340  0.2384  0.0236
    1W        W54052   3.508  17.124   7.865 -0.3023  0.1047  0.0799
    1W        W54053  11.618   5.167   2.805  0.1013  0.1164  0.2831
    1W        W54054   0.649  23.887   8.098 -0.1703 -0.1248 -0.0627
    1W        W54055   5.103  27.335   8.145 -0.0764  0.0401  0.1954
    1W        W54056  21.794  11.928   9.367  0.1393 -0.1197 -0.2128
    1W        W54057  12.987  27.378   1.261 -0.2060  0.0737 -0.3574
    1W        W54058   2.870  28.276   1.550  0.0455 -0.1291 -0.0774
    1W        W54059  25.854   6.499   8.595  0.3244 -0.2312  0.0978
    1W        W54060  25.402   7.978   2.450 -0.0608 -0.1493 -0.1101
    1W        W54061   8.187  24.827   0.443  0.0578  0.1835 -0.1830
    1W        W54062  16.745  22.751   1.839 -0.1660  0.2355 -0.1356
    1W        W54063   2.393   2.071   7.488 -0.4282  0.2093  0.2154
    1W        W54064  19.627   1.399   8.736  0.0799 -0.2756  0.1190
    1W        W54065  25.505   6.799   7.740  0.0746 -0.1146 -0.2732
    1W        W54066   9.759  27.391   0.690  0.2885  0.0927 -0.0810
    1W        W54067   6.790  14.848   8.431 -0.1455 -0.0109  0.3437
    1W        W54068   2.418   8.198   0.283 -0.1111  0.1440  0.1602
    1W        W54069  18.725  15.063   7.365  0.3135 -0.0713 -0.0787
    1W        W54070   7.229  22.057   8.548 -0.0170  0.0180 -0.1681
    1W        W54071  24.935  15.324   6.291  0.2481  0.1126  0.2198
    1W        W54072  29.529  18.176   5.903  0.2780  0.1881  0.2295
    1W        W54073  18.409  12.023   1.179  0.3777 -0.2502  0.1548
    1W        W54074  20.313  24.552   9.385  0.2380 -0.2259  0.3944
    1W        W54075  20.860  14.613   9.157  0.0376 -0.0306 -0.0071
    1W        W54076   6.727   5.593   0.100  0.0033  0.2587 -0.1665
    1W        W54077  26.033   4.220   6.828 -0.0624  0.0271 -0.2700
    1W        W54078  22.785  28.744   0.276  0.4452  0.1766 -0.1238
    1W        W54079   4.545  29.258   1.716 -0.1105 -0.1098 -0.2001
    1W        W54080  25.581  11.919   0.685 -0.2906 -0.2819 -0.0269
    1W        W54081   9.097  11.099   0.103 -0.0123 -0.0848 -0.0966
    1W        W54082  17.212  27.229   6.518 -0.3466 -0.1224  0.1151
    1W        W54083   0.870  15.347   1.250 -0.0507 -0.3818 -0.0121
    1W        W54084   2.446  15.553   6.044 -0.3907 -0.1233 -0.0355
    1W        W54085   6.399   9.305   2.561  0.3875 -0.5286 -0.0307
    1W        W54086  13.594   2.338   1.114 -0.1530 -0.1034  0.0136
    1W        W54087  19.863  12.187   1.198 -0.1542  0.0951  0.3667
    1W        W54088   8.899  29.492   6.895  0.0148  0.3594  0.3026
    1W        W54089   5.661   2.343   2.838  0.0588 -0.0940 -0.1500
    1W        W54090  28.241  22.104   8.246 -0.3147 -0.3004 -0.0972
    1W        W54091  12.034  11.422   8.361 -0.1527 -0.1126 -0.1155
    1W        W54092   9.705   0.779   0.543  0.0728  0.2349  0.0382
    1W        W54093  21.708   8.080   2.151 -0.1386  0.0897 -0.0899
    1W        W54094   2.481  27.577   2.857 -0.3449  0.3162 -0.2080
    1W        W54095  25.365  23.267   1.190  0.2505  0.0132 -0.1884
    1W        W54096  19.650   4.557   8.782 -0.0388  0.3310  0.0272
    1W        W54097  15.045  13.337   7.021  0.2827 -0.1770 -0.1766
    1W        W54098   8.764  19.156   8.539  0.2274 -0.1115 -0.0435
    1W        W54099  18.127  21.890   9.204  0.0961 -0.2594 -0.1295
    1W        W54100  23.276  19.594   9.318  0.2321  0.2571 -0.4397
    1W        W54101   0.488   8.677   1.465 -0.2300 -0.0637 -0.0781
    1W        W54102   3.498   1.878   2.898  0.4262  0.0581  0.0661
    1W        W54103  10.378   5.568   3.015  0.0299  0.0991  0.2354
    1W        W54104  23.980  28.992   1.642  0.0452  0.3567  0.2129
    1W        W54105   0.718  25.789   6.154  0.2802 -0.0202 -0.1007
    1W        W54106  27.949  29.090   1.789 -0.0510 -0.1109  0.0753
    1W        W54107  22.940   1.675   0.478  0.1682 -0.2266  0.0587
    1W        W54108  12.132   4.590   1.362 -0.1166 -0.3662  0.1452
    1W        W54109   5.655  27.484   0.424  0.1043  0.2157  0.1012
    1W        W54110  24.032   7.646   1.381  0.3500 -0.0672  0.0132
    1W        W54111  11.913  25.573   2.489  0.0355  0.1541  0.1127
    1W        W54112  19.096  13.502   1.681 -0.3681  0.1341  0.0529
    1W        W54113  12.753  11.243   1.142  0.2461  0.0296  0.1394
    1W        W54114   3.843  20.052   5.803  0.1275 -0.0862  0.3463
    1W        W54115  10.464   3.716   1.833 -0.2148 -0.1452  0.1645
    1W        W54116   3.237   1.151   1.622 -0.0979  0.1077 -0.0829
    1W        W54117  17.019  24.235   1.793  0.3127 -0.1039  0.2326
    1W        W54118   9.337   1.953   7.830  0.1277 -0.0927 -0.1398
    1W        W54119   8.792   4.325   7.460  0.0888 -0.0940 -0.0063
    1W        W54120  29.874  17.806   8.332 -0.3734 -0.0281 -0.2187
    1W        W54121   8.442  12.949   7.504  0.2447  0.1915 -0.0316
    1W        W54122  12.475  17.727   8.879 -0.0109 -0.1154  0.1674
    1W        W54123   5.717  22.111   6.720 -0.1099  0.3026 -0.0158
    1W        W54124  10.491   4.195   8.099 -0.1733  0.1019 -0.0365
    1W        W54125  26.798  20.744   1.368 -0.1254 -0.0918  0.2507
    1W        W54126  18.726  10.112   1.814 -0.1329 -0.1628 -0.0326
    1W        W54127   6.009   1.495   7.972 -0.2036 -0.1055 -0.2053
    1W        W54128  22.959  15.105   8.781 -0.1577  0.3166 -0.2458
    1W        W54129   7.782  12.810   2.049 -0.0937  0.2917 -0.3239
    1W        W54130   6.719  21.405   0.041 -0.1686 -0.2937 -0.1061
    1W        W54131  25.360   2.487   0.663 -0.1826  0.0098 -0.0882
    1W        W54132  15.927  28.248   8.195  0.2032 -0.0858 -0.1219
    1W        W54133  22.951  26.966   2.556 -0.1476  0.2270 -0.1794
    1W        W54134  22.290  14.550   1.376  0.2166  0.2253 -0.0832
    1W        W54135   1.756  22.120   7.552 -0.2565 -0.0158 -0.1144
    1W        W54136  18.344  26.214   1.846 -0.2062 -0.1422  0.1217
    1W        W54137   4.409  25.779   8.151  0.2938  0.3711  0.1222
    1W        W54138  24.363  28.003   8.039 -0.1438 -0.0947  0.1200
    1W        W54139  28.155  14.487   6.264  0.0576  0.2304 -0.3168
    1W        W54140   8.176  16.890   0.529  0.0507  0.0470 -0.0540
    1W        W54141  12.027  24.213   7.697 -0.1024 -0.0772 -0.1546
    1W        W54142   9.512  26.901   2.558  0.1396  0.1057 -0.0111
    1W        W54143  27.070   3.891   2.585  0.0191 -0.1181 -0.0790
    1W        W54144   5.579  27.611   1.501 -0.1044 -0.1546  0.0738
    1W        W54145   0.741  28.585   2.542  0.0793  0.1119 -0.0955
    1W        W54146  10.314  21.736   0.001 -0.0309 -0.2078  0.0065
    1W        W54147   9.314  29.491   9.388 -0.2019 -0.1744 -0.0075
    1W        W54148  17.203  19.528   6.584  0.0417  0.1174  0.2077
    1W        W54149  25.178  26.221   0.497  0.1308 -0.1791 -0.3012
    1W        W54150  29.667  29.433   0.533 -0.0378 -0.2532 -0.1032
    1W        W54151   3.673  25.949   0.995 -0.1396 -0.0535 -0.2321
    1W        W54152  15.258  20.389   7.459 -0.2160  0.1018 -0.1516
    1W        W54153  19.595  18.746   0.601 -0.1212  0.0568 -0.1159
    1W        W54154   0.150  25.940   2.522  0.2056  0.0125  0.0212
    1W        W54155   6.065   1.254   0.789 -0.2990 -0.2443  0.0607
    1W        W54156  22.971  16.820   0.254 -0.2671  0.1234  0.1592
    1W        W54157  12.286  20.019   9.014  0.0992 -0.1614 -0.2317
    1W        W54158   3.298  23.170   8.080 -0.0360  0.0294 -0.1529
    1W        W54159   5.212   0.813   7.817 -0.2199  0.3942  0.0370
    1W        W54160  26.854  10.297   6.413 -0.0336 -0.1800 -0.2005
    1W        W54161  11.737  11.788   1.779 -0.2035 -0.0807  0.3887
    1W        W54162  29.176  20.697   6.756 -0.0498  0.0593 -0.0351
    1W        W54163  30.074   3.986   2.360 -0.0694 -0.1476 -0.0120
    1W        W54164   4.319  11.770   1.489  0.2166  0.0288  0.1378
    1W        W54165   9.737   3.013   2.474 -0.1436 -0.3073  0.2318
    1W        W54166   9.132   4.233   8.476 -0.0946 -0.0199 -0.0826
    1W        W54167  17.892  24.629   1.644 -0.1843  0.3311 -0.0405
    1W        W54168  29.864  26.228   6.900  0.0857  0.0638 -0.0542
    1W        W54169  13.880   0.081   0.409  0.0886  0.0428  0.2690
    1W        W54170   1.063  11.312   7.202  0.2306 -0.3724 -0.2583
    1W        W54171  11.044   5.181   7.966 -0.0563  0.0288 -0.1554
    1W        W54172  28.195   1.209   9.241 -0.2664  0.0019 -0.0722
    1W        W54173   6.378  29.301   9.226 -0.2137  0.2719 -0.1857
    1W        W54174  17.706   4.339   8.492  0.1356  0.0475 -0.1534
    1W        W54175   5.019  29.286   9.193 -0.1586 -0.0830 -0.1107
    1W        W54176  26.601   3.351   0.170  0.1284 -0.1625 -0.4587
    1W        W54177  19.592  20.939   0.600  0.3272 -0.0305 -0.2376
    1W        W54178   6.359   6.393   9.055  0.2651 -0.0397 -0.0596
    1W        W54179   2.147  20.152   7.109 -0.0275 -0.1258  0.2782
    1W        W54180   4.658  19.479   6.209 -0.2382 -0.2375  0.0446
    1W        W54181  28.820   9.109   0.757  0.1425  0.0342  0.0632
    1W        W54182  29.135  16.463   0.481  0.3028  0.1054 -0.0567
    1W        W54183  15.137  28.007   6.821  0.1466  0.0776 -0.0540
    1W        W54184  26.247  15.997   6.490 -0.2026 -0.0729  0.2068
    1W        W54185   0.256  24.163   1.082 -0.0032 -0.2051 -0.2856
    1W        W54186   6.452  22.079   6.298 -0.1044  0.2741 -0.1952
    1W        W54187   5.436  22.116   0.281 -0.2190  0.2017 -0.0656
    1W        W54188  21.466  16.147   5.885 -0.1608  0.0847 -0.1187
    1W        W54189  22.966  16.099   1.202 -0.0422  0.1152  0.0428
    1W        W54190  21.021  14.241   0.022 -0.1377 -0.1023 -0.2309
    1W        W54191  12.997   9.242   1.555 -0.1764 -0.2124 -0.1850
    1W        W54192  19.065  28.512   8.392  0.1862 -0.0020 -0.6047
    1W        W54193  27.603  25.543   1.753  0.1240  0.2609  0.0183
    1W        W54194  16.305   6.586   1.686 -0.0885  0.1663  0.2074
    1W        W54195  27.095  26.881   8.871  0.2744 -0.0516 -0.3163
    1W        W54196  15.494  14.985   0.313 -0.0899 -0.0991 -0.2508
    1W        W54197   2.515   2.461   8.167  0.1225 -0.0035 -0.2417
    1W        W54198   5.205  14.020   1.722 -0.0761  0.2791  0.3540
    1W        W54199   4.437  12.274   1.665 -0.0010 -0.2247  0.0681
    1W        W54200   2.514  10.209   6.665  0.2289  0.2057 -0.2687
    1W        W54201   2.473  23.652   6.562  0.0171  0.0036  0.0619
    1W        W54202  11.245  16.002   2.000 -0.3308 -0.1877  0.4550
    1W        W54203  11.538   7.715   8.053 -0.1912  0.0341 -0.0629
    1W        W54204  25.554  19.293   9.253  0.1619  0.0203  0.0235
    1W        W54205  18.264  10.044   1.828  0.0917 -0.0078 -0.0775
    1W        W54206  20.885  18.151   0.151  0.1335  0.1063 -0.4234
    1W        W54207  26.681  16.678   8.348 -0.5377  0.1050  0.0323
    1W        W54208  25.902  29.445   7.343 -0.0268  0.2516  0.0592
    1W        W54209  18.818   5.178   3.837  0.0158  0.1162 -0.1241
    1W        W54210  29.140  26.182   2.195 -0.0050 -0.1700  0.1106
    1W        W54211  17.635  21.259   1.550 -0.0936 -0.0871  0.0467
    1W        W54212  22.417  12.512   7.672  0.1512  0.3086  0.0915
    1W        W54213   1.171  24.041   7.192 -0.2571  0.0074  0.1091
    1W        W54214  26.507  22.989   9.387 -0.0451  0.2877 -0.1350
    1W        W54215   4.163  22.775   8.682  0.0529 -0.4130 -0.0833
    1W        W54216  23.145  11.905   9.119 -0.0455  0.0384  0.2989
    1W        W54217  20.799  28.784   0.385 -0.0323 -0.3282  0.1495
    1W        W54218   3.201  30.028   8.501 -0.1220  0.0633  0.1241
    1W        W54219  11.267  19.065   7.809 -0.1491  0.2930 -0.0973
    1W        W54220  23.945  19.787   0.455 -0.1712  0.0293  0.0877
    1W        W54221  24.191   6.514   8.610  0.0628  0.0928  0.1648
    1W        W54222   7.203   6.375   2.163 -0.0704  0.2717 -0.0423
    1W        W54223  19.378  26.702   3.707 -0.1456 -0.0630 -0.2751
    1W        W54224  16.638   8.903   1.975  0.0800 -0.0562  0.3454
    1W        W54225  13.831  24.853   2.370 -0.3897  0.1814 -0.0636
    1W        W54226  26.359  16.538   8.705 -0.1507 -0.1520  0.1416
    1W        W54227  26.620   5.162   2.463  0.1436  0.1239 -0.1682
    1W        W54228  19.893  26.203   0.616  0.1846 -0.3340 -0.1109
    1W        W54229   4.479  11.994   7.094 -0.1219 -0.3307  0.1413
    1W        W54230   0.781  22.234   6.932 -0.1072  0.1550  0.0263
    1W        W54231  10.290   2.199   1.736  0.1144  0.4104 -0.1306
    1W        W54232  14.743  21.883   1.586  0.1384 -0.0657  0.0062
    1W        W54233   2.741   7.949   1.263 -0.1197  0.0856  0.3447
    1W        W54234  19.703   2.106   2.036  0.1560  0.1999 -0.1081
    1W        W54235  10.892  10.690   7.554  0.1392 -0.0946  0.1791
    1W        W54236   9.797  14.517   7.131  0.0296 -0.1603 -0.5231
    1W        W54237  16.203   6.307   8.446  0.2652 -0.0284  0.0778
    1W        W54238  11.989  17.349   7.868 -0.0159  0.1645 -0.2068
    1W        W54239  11.335  24.263   6.499 -0.0515 -0.1215  0.1922
    1W        W54240  21.737   0.964   0.787  0.0022  0.1233  0.1721
    1W        W54241   3.696  29.551   2.609 -0.4044 -0.2275  0.4553
    1W        W54242  21.474  12.306   7.957  0.2030  0.0513  0.0484
    1W        W54243  23.709  13.660   6.642  0.0099  0.3176 -0.0116
    1W        W54244  25.704   4.043   2.155  0.2471  0.0421 -0.0008
    1W        W54245  19.232   2.603   2.602  0.0403 -0.2638  0.0413
    1W        W54246  24.409   0.296   0.241  0.2577 -0.2524  0.2536
    1W        W54247  24.865  20.956   6.746 -0.1500 -0.2863 -0.0208
    1W        W54248  29.474  21.696   8.633  0.3632  0.0560  0.1689
    1W        W54249   9.616  10.526   8.480 -0.1517 -0.1658  0.1082
    1W        W54250  24.350  16.904   0.298  0.4026 -0.2882  0.0868
    1W        W54251  11.062  29.411   0.665  0.2272  0.3476  0.2776
    1W        W54252   9.689   0.993   1.147  0.2130  0.0895 -0.0163
    1W        W54253  22.861  28.029   9.370  0.2349  0.3833 -0.1335
    1W        W54254  20.416  12.122   7.347 -0.1377  0.1287  0.2716
    1W        W54255   0.034  19.257   0.981 -0.2468  0.0951 -0.0044
    1W        W54256  27.165  25.692   0.056 -0.0335 -0.1540 -0.0574
    1W        W54257  17.177  19.088   7.413 -0.2408 -0.0669  0.1019
    1W        W54258  21.567  24.111   2.465  0.0991 -0.2831 -0.2031
    1W        W54259   2.910  20.934   8.834 -0.0575  0.0226  0.1949
    1W        W54260  21.665  21.897   7.944 -0.0121 -0.0274  0.0731
    1W        W54261  16.263  14.192   1.604 -0.4448  0.1160 -0.0594
    1W        W54262   2.637  23.283   0.238 -0.2310  0.1407  0.0305
    1W        W54263   3.030  19.342   5.903 -0.2736 -0.0536 -0.1423
    1W        W54264   6.764  27.209   7.550 -0.0833  0.0619 -0.0172
    1W        W54265  17.637  28.904   2.359  0.0457  0.1709 -0.2460
    1W        W54266  29.429  21.476   6.268 -0.0078 -0.0768 -0.1501
    1W        W54267  11.724  29.127   2.994  0.1014 -0.0358 -0.0210
    1W        W54268   0.752   4.362   7.727 -0.3839 -0.1489 -0.1562
    1W        W54269   5.811  27.900   9.259  0.0946  0.1339  0.3742
    1W        W54270  25.169   6.817   2.396 -0.0911 -0.1749  0.3116
    1W        W54271   3.234  14.902   6.642 -0.2796 -0.1108  0.0051
    1W        W54272   5.376  19.402   0.495 -0.2197  0.2324 -0.0055
    1W        W54273  19.689   2.676   1.783 -0.1610 -0.2362 -0.1333
    1W        W54274  18.902  10.929   8.191  0.1275 -0.3194  0.2019
    1W        W54275   3.908  25.658   6.910 -0.1087 -0.1634 -0.0086
    1W        W54276   9.318  21.450   1.562 -0.1440  0.0202 -0.0148
    1W        W54277   9.677  26.096   7.069 -0.0259  0.1062  0.0116
    1W        W54278  24.274  14.727   6.095  0.0719 -0.2199  0.0042
    1W        W54279   6.677  15.442   0.817 -0.3495  0.1259  0.0427
    1W        W54280  13.165  28.087   7.686  0.0030  0.4344 -0.0152
    1W        W54281   9.873   4.557   0.580  0.0574 -0.0485  0.0177
    1W        W54282   6.299  26.086   1.570 -0.1017  0.0951 -0.0534
    1W        W54283   6.682   7.761   9.353 -0.0238 -0.2295  0.0391
    1W        W54284  27.801  24.128   0.195  0.1825 -0.3032  0.0368
    1W        W54285  23.095  26.633   1.430 -0.0641  0.0861 -0.1195
    1W        W54286  14.424  22.101   7.328  0.1941 -0.0250  0.0912
    1W        W54287  26.387  20.574   7.140  0.0686  0.0391 -0.0730
    1W        W54288  17.250  13.696   8.104 -0.2175 -0.3616 -0.3077
    1W        W54289  18.987   0.363   2.210 -0.5571 -0.0108  0.0788
    1W        W54290   1.754   4.352   0.354 -0.0472  0.0792 -0.2301
    1W        W54291  21.605   7.038   0.697 -0.0788  0.1943 -0.1500
    1W        W54292  18.859  22.476   1.604  0.1559 -0.0633 -0.0049
    1W        W54293  10.147  20.429   7.516 -0.0011 -0.2531  0.2917
    1W        W54294   5.690   3.479   7.298 -0.1065  0.3058 -0.2693
    1W        W54295  24.684  30.021   1.201  0.1638 -0.3819 -0.1066
    1W        W54296   0.865   9.377   6.952  0.3852  0.0095 -0.0261
    1W        W54297  25.843  28.425   0.035 -0.2127 -0.3450 -0.1374
    1W        W54298  26.553   0.136   1.273 -0.3869  0.0387 -0.0369
    1W        W54299  24.534  14.582   8.206  0.0908  0.3164  0.0038
    1W        W54300  20.511   2.197   7.991 -0.0740  0.1001  0.1594
    1W        W54301  26.225  12.264   0.753  0.2621  0.1738  0.0635
    1W        W54302  27.320  11.866   6.900  0.3986 -0.0301 -0.2222
    1W        W54303  24.385   4.102   7.707 -0.0679  0.2409 -0.2279
    1W        W54304  21.144  11.132   8.444 -0.0957 -0.0053  0.1581
    1W        W54305   6.911  16.629   2.101  0.0394  0.2090  0.0369
    1W        W54306  28.101  29.966   7.585 -0.0661  0.2377 -0.0368
    1W        W54307   3.281  23.055   7.375  0.0130  0.0845  0.0510
    1W        W54308  14.584   7.452   8.141 -0.1091 -0.2041 -0.0301
    1W        W54309  13.216   6.671   1.534 -0.1538 -0.0192 -0.0512
    1W        W54310  27.506   7.079   6.645  0.1029  0.2426  0.0885
    1W        W54311   5.677  25.033   1.121 -0.0210 -0.1989 -0.0709
    1W        W54312  22.299  11.047   1.572  0.0926  0.0232  0.1189
    1W        W54313  14.056   6.865   1.801 -0.0103 -0.1315 -0.0988
    1W        W54314  22.214  25.214   2.541 -0.1563  0.0925 -0.0303
    1W        W54315  23.263  23.931   7.368 -0.0462  0.2867 -0.4801
    1W        W54316  10.210  27.362   3.065  0.0901 -0.0172 -0.3169
    1W        W54317  21.930  14.846   1.657  0.0899 -0.1305  0.1200
    1W        W54318   9.782   6.113   1.273 -0.2996 -0.2549  0.1868
    1W        W54319  26.352   1.570   1.667 -0.1658  0.2291  0.4589
    1W        W54320  21.749  15.906   2.465  0.0250 -0.0557 -0.0337
    1W        W54321  19.030   2.141   8.727  0.0577 -0.0476 -0.0791
    1W        W54322   8.036  17.028   6.957  0.0255 -0.0103 -0.1177
    1W        W54323  10.841  22.717   0.658 -0.0722  0.0045 -0.0500
    1W        W54324  11.432  16.492   7.454 -0.1253  0.3374  0.3435
    1W        W54325  11.971  25.731   6.821 -0.3517  0.0493  0.1411
    1W        W54326  17.038   8.548   0.931  0.1236 -0.0855 -0.0586
    1W        W54327  12.470   1.712   2.822 -0.2160 -0.0913  0.0314
    1W        W54328  14.411  19.492   7.906  0.0998 -0.0639  0.6101
    1W        W54329  27.318  23.831   0.832 -0.1811  0.2380 -0.1264
    1W        W54330   2.029   9.706   1.676 -0.4238  0.1048  0.0916
    1W        W54331   7.978  27.346   1.492  0.1500  0.1796 -0.0386
    1W        W54332  13.159  21.169   1.965  0.1604 -0.3674 -0.2602
    1W        W54333   0.450  22.788   8.728  0.1813  0.1817  0.2576
    1W        W54334  25.194   5.964   0.340 -0.0667  0.2904  0.3288
    1W        W54335   7.235  15.818   0.199  0.0065 -0.2598 -0.1170
    1W        W54336   0.102  23.341   5.575 -0.0309  0.0864  0.0734
    1W        W54337   6.687   0.193   2.126 -0.2151  0.1141 -0.3994
    1W        W54338  27.292  22.057   7.686 -0.1544  0.0401 -0.0780
    1W        W54339  26.420   8.353   7.803 -0.0083 -0.2978  0.0903
    1W        W54340  23.340  28.060   0.068 -0.2995  0.2473 -0.0422
    1W        W54341  30.052  10.747   0.172 -0.0075  0.0865  0.1049
    1W        W54342  14.694  19.349   7.290  0.0357 -0.0279 -0.0861
    1W        W54343  18.585   1.303   8.700  0.1378 -0.1461 -0.0549
    1W        W54344  21.483  11.626   7.358 -0.1353 -0.1878 -0.1287
    1W        W54345  14.620  14.075   7.438  0.0436  0.0876  0.1519
    1W        W54346   6.222  24.057   6.886 -0.1000 -0.0931 -0.0790
    1W        W54347   3.683  24.758   8.670  0.0698 -0.1448  0.0624
    1W        W54348  25.525   5.609   6.113 -0.0512 -0.0997  0.0013
    1W        W54349   1.289   8.953   7.741 -0.1302 -0.1572  0.1710
    1W        W54350  25.166   7.973   9.401 -0.2051  0.2980 -0.1525
    1W        W54351  12.006   1.989   2.003 -0.1502  0.1277 -0.0917
    1W        W54352  22.852   2.132   2.141  0.2336 -0.1157  0.0569
    1W        W54353  26.342  29.752   7.228  0.0502 -0.3351 -0.0208
    1W        W54354   2.428  29.513   3.194  0.0649 -0.0175 -0.1583
    1W        W54355  29.095  20.295   7.040 -0.1309  0.1021  0.0321
    1W        W54356  16.303  14.056   9.103 -0.3596  0.2735  0.3386
    1W        W54357  28.036  11.515   0.392  0.1881 -0.1372  0.2653
    1W        W54358  21.219   4.498   7.736 -0.1184 -0.1954 -0.0453
    1W        W54359  12.543  26.096   0.816 -0.0316 -0.0182  0.0873
    1W        W54360  25.559  10.541   6.957 -0.0236 -0.2936 -0.0858
    1W        W54361  23.257  29.508   7.234 -0.0210 -0.1209 -0.3587
    1W        W54362   7.128   7.020   8.691 -0.1411 -0.1209  0.2469
    1W        W54363   2.742  17.701   8.012  0.1665  0.0814  0.0547
    1W        W54364  24.554   9.741   0.089 -0.0128 -0.4096 -0.4663
    1W        W54365  21.868  24.330   2.133  0.1397  0.2491  0.4762
    1W        W54366   7.198  19.957   1.285  0.2391  0.2427 -0.0377
    1W        W54367   0.188  28.359   0.752 -0.0929  0.2435  0.1624
    1W        W54368   0.577  20.763   8.641 -0.2108 -0.1027  0.4506
    1W        W54369   2.337  15.558   6.575 -0.0803  0.0135  0.0686
    1W        W54370  14.418  24.832   1.914 -0.2107  0.2380  0.2040
    1W        W54371  25.798  22.469   6.216  0.0604 -0.3475 -0.0153
    1W        W54372  25.685   7.015   8.205  0.1983 -0.2385  0.0101
    1W        W54373  11.405  27.171   1.753 -0.1841  0.2607  0.4084
    1W        W54374  17.406  28.689   7.203  0.1004  0.0370  0.0477
    1W        W54375  17.683   0.913   1.900 -0.4135 -0.1088  0.0418
    1W        W54376   5.864  26.142   7.225  0.5644  0.2301  0.0127
    1W        W54377  22.189  17.681   8.557 -0.1176  0.3050 -0.2227
    1W        W54378   4.262   8.914   1.339  0.1168  0.0144  0.1647
    1W        W54379  25.973  19.533   7.062 -0.0511 -0.0091  0.0646
    1W        W54380  25.297  29.809   2.337  0.4097  0.0955 -0.1956
    1W        W54381  27.191  26.692   6.434 -0.3334 -0.0578  0.3346
    1W        W54382  23.937   8.417   6.424  0.2004 -0.1958  0.2471
    1W        W54383  17.761   7.041   6.911  0.0620 -0.1387 -0.2313
    1W        W54384  19.213   5.410   4.027 -0.1897  0.2033  0.0877
    1W        W54385   9.688  24.656   6.999 -0.1010  0.1099 -0.0100
    1W        W54386  28.649  13.535   5.949  0.0051 -0.0226  0.0509
    1W        W54387   4.957   6.096   0.109  0.1620  0.0314  0.1698
    1W        W54388  23.451  23.358   6.694 -0.2249  0.4305  0.0806
    1W        W54389  13.542  18.511   7.251 -0.2641 -0.1097 -0.0811
    1W        W54390   9.699  12.235   1.608 -0.2583 -0.1643 -0.1829
    1W        W54391  28.732  23.860   8.409  0.1490  0.0172 -0.0200
    1W        W54392  22.119  28.325   0.679  0.1450  0.0958 -0.2836
    1W        W54393  21.034  28.394   0.114  0.0057  0.0933 -0.0319
    1W        W54394   0.560  29.204   2.503  0.2857 -0.0627  0.4667
    1W        W54395  13.363  22.629   6.950  0.0086 -0.1888 -0.0576
    1W        W54396  17.836   4.779   8.579 -0.1195 -0.0211  0.2278
    1W        W54397  10.507  14.443   2.207  0.0462  0.1948 -0.0685
    1W        W54398   9.699  21.217   7.833  0.0515  0.2025 -0.0884
    1W        W54399  11.629   3.470   1.666  0.0135 -0.0919  0.0474
    1W        W54400  23.848  20.808   6.736  0.1371 -0.1118 -0.1415
    1W        W54401  22.034   6.938   1.425 -0.2273 -0.0449 -0.0289
    1W        W54402   1.934  19.869   6.211  0.0251  0.3748 -0.1998
    1W        W54403   3.844   1.272   0.840  0.1491 -0.1911 -0.1045
    1W        W54404  26.313  21.347   1.522 -0.0929  0.0505 -0.2283
    1W        W54405   2.634  18.758   0.341 -0.0044  0.1085 -0.1336
    1W        W54406  22.655  16.072   6.424 -0.1760  0.1195 -0.1173
    1W        W54407  19.989  27.081   0.417  0.0554  0.2657  0.1126
    1W        W54408  18.707   9.201   9.109  0.0284  0.1625  0.1065
    1W        W54409   4.905  20.475   1.034  0.0110 -0.0659 -0.0567
    1W        W54410  12.112  15.205   1.690  0.1025  0.0818 -0.2983
    1W        W54411  29.573  17.118   6.479 -0.0762  0.1074 -0.1412
    1W        W54412  12.682  27.231   3.010  0.0021  0.0253  0.0970
    1W        W54413  24.648  26.879   7.506 -0.1108  0.1217 -0.1088
    1W        W54414  27.699  18.787   1.486  0.1355  0.1303 -0.2949
    1W        W54415   0.939  28.794   7.454  0.1646 -0.0042 -0.0158
    1W        W54416   0.478  13.948   6.074 -0.0214 -0.0715  0.4234
    1W        W54417  25.256  13.944   7.264  0.0172  0.1809 -0.0115
    1W        W54418  19.929   7.434   2.104 -0.0714 -0.2036 -0.3248
    1W        W54419  20.723   8.613   7.881 -0.2042 -0.1129  0.1576
    1W        W54420  16.375   0.438   1.824 -0.3026  0.2443  0.0628
    1W        W54421  21.982   4.822   0.918 -0.0048  0.3578 -0.0788
    1W        W54422   8.793  15.271   0.492 -0.1370 -0.0565 -0.3161
    1W        W54423  19.323   8.378   3.100 -0.1683  0.1905 -0.1486
    1W        W54424   9.257  15.414   8.335  0.1789  0.4792  0.1044
    1W        W54425  12.751  23.916   2.367  0.1433 -0.0337  0.0014
    1W        W54426  28.759   6.180   3.153  0.1594 -0.2541 -0.2191
    1W        W54427  14.056  18.492   2.493  0.0276 -0.0851  0.1850
    1W        W54428   0.974  10.062   0.839 -0.2437 -0.3392  0.0863
    1W        W54429  15.210  17.205   2.453  0.3268  0.0636  0.2387
    1W        W54430  13.121   2.528   4.113 -0.1203  0.1368 -0.0824
    1W        W54431   0.626   1.688   0.820  0.0171 -0.1788  0.1402
    1W        W54432  13.544  14.380   2.048 -0.1229 -0.2420  0.1475
    1W        W54433  23.035  24.278   6.994 -0.1458 -0.0060  0.0704
    1W        W54434  12.656  28.550   0.683  0.0408 -0.0724  0.0191
    1W        W54435   7.004  14.054   1.378 -0.0728  0.1007  0.0743
    1W        W54436  24.037  19.946   6.553  0.2627 -0.1293 -0.1142
    1W        W54437  24.982  18.033   6.388  0.0184 -0.2739 -0.3181
    1W        W54438   7.591   8.231   7.340  0.0877  0.2206  0.0902
    1W        W54439  22.149  13.475   7.314  0.1291  0.0473 -0.0935
    1W        W54440   5.293  19.749   5.446 -0.1179 -0.3501  0.1181
    1W        W54441  17.575   1.463   0.680  0.4089  0.0307  0.1373
    1W        W54442   6.059  29.367   2.458  0.2807  0.4760 -0.2078
    1W        W54443  20.643  25.450   9.370  0.2087  0.2744  0.1764
    1W        W54444   3.038  21.352   8.331 -0.1880  0.1377  0.1706
    1W        W54445  27.244  29.484   2.096 -0.2656 -0.0866 -0.0590
    1W        W54446  11.761  29.090   2.112  0.2294  0.3794  0.0929
    1W        W54447  11.777  30.037   1.209 -0.2634 -0.0113  0.0579
    1W        W54448  27.285  20.764   1.556  0.1620 -0.2678 -0.1310
    1W        W54449  29.446   5.410   2.380  0.4729 -0.2447  0.2422
    1W        W54450  15.043  23.904   1.673 -0.0566  0.1190  0.0903
    1W        W54451  10.229   2.992   8.112 -0.3383  0.1930  0.1356
    1W        W54452  24.084   1.743   2.707 -0.1497  0.0023 -0.1784
    1W        W54453  19.408   1.339   2.224 -0.2340 -0.0647 -0.0985
    1W        W54454  15.791  14.470   2.268 -0.0004 -0.2268 -0.0213
    1W        W54455   4.374  24.193   1.770 -0.0579 -0.2065 -0.1523
    1W        W54456  24.312  24.150   3.126  0.1355 -0.2887  0.0761
    1W        W54457  25.584  16.264   5.437 -0.1721 -0.3509  0.0636
    1W        W54458   9.694  13.223   9.312  0.0272 -0.1425  0.0367
    1W        W54459  27.423  27.068   9.186 -0.1414  0.0028 -0.3559
    1W        W54460  19.425  11.966   6.671  0.1833  0.4335 -0.0850
    1W        W54461   0.940   1.183   0.205  0.1957  0.3223  0.2802
    1W        W54462   9.208  24.342   1.017  0.2983  0.2346 -0.3033
    1W        W54463  24.314  28.920   2.167  0.3591  0.0711  0.2974
    1W        W54464  19.171   1.486   7.868  0.0835 -0.0397  0.2036
    1W        W54465   0.732  10.318   9.137 -0.0773 -0.1568 -0.1476
    1W        W54466   0.726  19.816   8.547 -0.0296  0.1957 -0.0842
    1W        W54467  13.230   1.662   0.376 -0.0499 -0.3819 -0.0126
    1W        W54468  14.241  25.784   7.771  0.2516 -0.0889  0.1087
    1W        W54469  24.842  13.416   5.713  0.0111 -0.2913 -0.1055
    1W        W54470  28.970   9.687   7.595  0.0290  0.3120 -0.3021
    1W        W54471  26.639   1.169   1.517  0.1761  0.0441  0.0641
    1W        W54472  21.844  12.515   9.401 -0.1361 -0.0608  0.0366
    1W        W54473   5.473   2.178   7.328 -0.1015  0.2612 -0.2253
    1W        W54474  22.548  23.232   3.031 -0.0774  0.1412  0.1551
    1W        W54475   4.426  26.190   9.006 -0.3960  0.0990 -0.1855
    1W        W54476   3.569   2.168   1.875  0.2257  0.0507  0.1955
    1W        W54477  21.131   8.216   0.567 -0.2666  0.1505 -0.1723
    1W        W54478  10.747   9.998   8.260  0.2665 -0.1194 -0.0075
    1W        W54479  21.223  28.497   8.263  0.3159 -0.4161  0.4279
    1W        W54480   4.921  21.885   0.219  0.0082  0.1875  0.0138
    1W        W54481  21.723   8.975   2.838 -0.2031  0.0757 -0.0207
    1W        W54482   1.268  17.929   6.469 -0.1046  0.1802 -0.1796
    1W        W54483   2.647  30.084   8.365  0.1483 -0.4603 -0.1050
    1W        W54484  20.077  11.959   0.216  0.0425 -0.0129  0.0114
    1W        W54485  23.112  28.968   0.685  0.1307 -0.1887  0.2646
    1W        W54486  11.773  21.417   2.145  0.1534 -0.1542  0.1242
    1W        W54487  22.552  28.771   1.230  0.1119 -0.2743  0.1417
    1W        W54488  16.245  22.607   0.386 -0.4326 -0.0389  0.1286
    1W        W54489  24.501  25.074   9.246 -0.0397  0.0140 -0.1057
    1W        W54490  10.951   3.750   1.053 -0.1142  0.3356  0.2581
    1W        W54491  27.830  14.748   8.942 -0.0843  0.2643  0.1611
    1W        W54492   0.860   9.033   7.347  0.0793 -0.1960 -0.0353
    1W        W54493   1.098  19.887   7.369  0.1821  0.2556 -0.4527
    1W        W54494  22.040  11.571   0.256  0.0822  0.0914  0.2284
    1W        W54495   2.571  16.023   8.567  0.0935  0.0588  0.3004
    1W        W54496  21.198   8.843   2.573 -0.0123 -0.0937  0.1900
    1W        W54497  12.171  27.344   7.431 -0.0860  0.0889  0.0174
    1W        W54498  20.992  11.596   2.407  0.1060 -0.1142  0.0349
    1W        W54499  12.721  17.815   0.717 -0.1633 -0.1932 -0.1249
    1W        W54500   4.699  15.585   0.683 -0.0140 -0.1912  0.4832
    1W        W54501  21.126  19.028   1.939 -0.1692 -0.1218  0.1351
    1W        W54502  20.658  25.017   6.346  0.0538 -0.0062  0.0840
    1W        W54503  25.118  21.626   7.093 -0.2751 -0.0577  0.1006
    1W        W54504   3.742  24.799   7.767  0.0554  0.1985 -0.1396
    1W        W54505  17.565  14.163   8.110 -0.1612 -0.1050  0.0229
    1W        W54506  22.067  17.235   7.291  0.0915  0.0702  0.1647
    1W        W54507   7.828  11.892   0.184  0.0638  0.1915 -0.0037
    1W        W54508   2.207  26.001   6.920 -0.1965  0.2501 -0.1319
    1W        W54509   8.488  12.044   1.805  0.0624  0.2402 -0.2967
    1W        W54510  28.481  17.011   7.705  0.1474 -0.1876  0.1201
    1W        W54511  11.352  26.476   6.366 -0.1191 -0.1138 -0.0987
    1W        W54512  17.232  11.992   9.237  0.1770  0.2592 -0.0210
    1W        W54513  10.980   7.910   2.066 -0.0206 -0.2730  0.2612
    1W        W54514   0.158  21.485   7.203  0.1021  0.0132 -0.0480
    1W        W54515  25.250  10.275   0.009  0.2726 -0.1887 -0.3338
    1W        W54516  26.482  10.491   7.590 -0.0828  0.0451 -0.2955
    1W        W54517  26.314  14.193   1.325 -0.0178  0.0496  0.2666
    1W        W54518   4.410   9.656   1.798 -0.1796  0.1158  0.1785
    1W        W54519  11.587   6.518   8.282  0.0244  0.1800 -0.1606
    1W        W54520  21.165  12.619   9.355  0.3833  0.3582 -0.1385
    1W        W54521   1.382  26.304   7.545 -0.2192  0.1232  0.0558
    1W        W54522  26.688  21.185   2.854  0.1637  0.2557 -0.0164
    1W        W54523  14.449  17.176   2.715  0.0888  0.1556 -0.0837
    1W        W54524  18.764  24.570   0.375 -0.1340  0.1748  0.1391
    1W        W54525  27.230   9.806   8.762 -0.0586 -0.0115 -0.0336
    1W        W54526  22.981  15.617   1.205  0.2673  0.0779  0.0405
    1W        W54527   2.308  18.845   8.142 -0.0256 -0.2345  0.2906
    1W        W54528  29.012   1.393   2.462  0.0018 -0.1680 -0.1882
    1W        W54529  24.230  22.834   0.825  0.1195 -0.0102 -0.3860
    1W        W54530   4.981  22.744   0.894 -0.0856  0.0138  0.2702
    1W        W54531  26.617  10.036   9.148  0.1225  0.0335  0.0618
    1W        W54532  23.749  23.622   8.259  0.0015 -0.0234 -0.1617
    1W        W54533  29.724  19.355   5.487 -0.0463 -0.0973 -0.1436
    1W        W54534   4.596  13.792   7.870  0.0490 -0.0323 -0.2425
    1W        W54535  27.942   3.102   6.268 -0.2131 -0.0452  0.0415
    1W        W54536  10.585  26.795   1.203  0.0380 -0.0809 -0.0753
    1W        W54537  19.225  23.229   9.139  0.2047 -0.0220 -0.4407
    1W        W54538  14.708  30.076   6.944  0.1876  0.1223 -0.1522
    1W        W54539  16.522  23.135   7.055 -0.0010 -0.2355  0.4611
    1W        W54540  30.115  23.702   8.468  0.2185  0.2669  0.2727
    1W        W54541  28.800   6.596   0.125 -0.0400 -0.3607  0.1717
    1W        W54542   5.197   2.518   0.495  0.2731 -0.1821 -0.0287
    1W        W54543   9.796  29.231   8.557  0.0422  0.0343  0.0747
    1W        W54544  19.324  22.770   8.316 -0.3268  0.1078 -0.2341
    1W        W54545  17.132  11.793   7.155 -0.2295  0.0581  0.2003
    1W        W54546   7.161   9.957   1.087 -0.0002  0.4463  0.0387
    1W        W54547  17.410   0.280   2.613  0.2090 -0.2864  0.1730
    1W        W54548  11.454  10.929   8.242  0.2984  0.2146  0.1781
    1W        W54549  23.016   6.138   8.432  0.1191 -0.0086  0.0509
    1W        W54550  26.536  30.133   0.807  0.1225  0.2404  0.2597
    1W        W54551   5.039  27.465   0.430 -0.0653  0.2266 -0.0424
    1W        W54552  28.155  16.580   0.324 -0.1267 -0.0056 -0.1353
    1W        W54553  18.044   0.063   1.908  0.2171  0.0145 -0.4089
    1W        W54554   0.412  21.042   7.310 -0.1592  0.2617  0.1229
    1W        W54555  23.322  23.260   2.380 -0.0002 -0.2764 -0.1034
    1W        W54556   2.281  16.644   0.136  0.0065 -0.0398 -0.2885
    1W        W54557  25.233  22.520   0.399  0.0633  0.1374  0.1962
    1W        W54558   6.955   0.767   3.278 -0.1058 -0.1046  0.1126
    1W        W54559  24.325   7.064   2.015  0.1058  0.2737 -0.3604
    1W        W54560   4.030   8.368   2.640 -0.0470 -0.1651  0.2453
    1W        W54561   0.659  17.951   5.652 -0.3760 -0.0926 -0.2120
    1W        W54562  29.050   0.277   7.570 -0.0563  0.0026  0.1477
    1W        W54563  28.261  27.224   3.433  0.0591  0.0542 -0.1667
    1W        W54564  15.201  25.510   7.193  0.2270 -0.1625  0.2817
    1W        W54565  30.090  29.119   0.347  0.1299 -0.0568  0.2329
    1W        W54566  28.230  17.469   5.809  0.0679 -0.0082  0.3292
    1W        W54567  18.687  16.535   9.076 -0.2891 -0.1421 -0.1182
    1W        W54568   1.800  17.138   5.804  0.0582  0.1305 -0.1922
    1W        W54569   3.984  26.844   2.930  0.0743 -0.2146  0.2553
    1W        W54570   3.588  17.987   0.624  0.0601 -0.1625  0.1879
    1W        W54571  11.522  26.099   7.128  0.3055  0.2066 -0.0539
    1W        W54572   5.828  28.421   8.064 -0.0132 -0.1866  0.1528
    1W        W54573  25.884  25.131   1.462  0.0262 -0.1187  0.0222
    1W        W54574   7.271   3.198   2.120 -0.0338 -0.1792  0.2029
    1W        W54575   1.466  14.282   6.684  0.0474 -0.3013 -0.1595
    1W        W54576  19.336  16.184   0.719  0.0966  0.1936  0.1356
    1W        W54577  25.244   6.388   7.785 -0.2397  0.1341  0.1176
    1W        W54578  22.047  16.689   8.568  0.0076 -0.0678  0.2202
    1W        W54579  29.556  21.471   9.086 -0.1711 -0.0770 -0.0117
    1W        W54580   9.882  23.969   8.228 -0.1179 -0.0162  0.0792
    1W        W54581  18.599   1.724   1.809  0.0502 -0.1671  0.1513
    1W        W54582  28.206  14.681   6.930  0.0022  0.0776  0.3642
    1W        W54583  16.883  28.408   2.921 -0.0406 -0.1841 -0.1930
    1W        W54584  22.763  19.963   6.770 -0.1366 -0.0875 -0.0757
    1W        W54585  17.761  26.497   0.755 -0.1598  0.1749  0.1775
    1W        W54586   8.709   9.136   8.805  0.2590 -0.1820  0.0990
    1W        W54587  10.039  11.349   1.893 -0.2116 -0.0045  0.1339
    1W        W54588  16.892   2.419   0.697  0.0998  0.0529 -0.2825
    1W        W54589  23.747  16.196   6.738 -0.3050 -0.0394 -0.0953
    1W        W54590   1.952  10.509   8.604 -0.1818  0.1602 -0.0709
    1W        W54591   9.318  23.849   1.063  0.0201  0.0312 -0.0744
    1W        W54592  14.584   3.593   7.169 -0.2653  0.0899 -0.1349
    1W        W54593  15.027  15.799   6.909 -0.1415 -0.0564  0.0410
    1W        W54594  18.545   7.653   2.377  0.0673  0.0727 -0.3409
    1W        W54595  13.109   4.614   1.826  0.1218  0.1508 -0.1001
    1W        W54596   7.413   2.675   1.516 -0.1200 -0.0217 -0.1012
    1W        W54597  18.466  28.155   9.303 -0.0805  0.1251 -0.0253
    1W        W54598   6.000  29.215   2.949  0.2229  0.1793  0.1876
    1W        W54599  14.724  16.557   0.968  0.0286 -0.1118 -0.0000
    1W        W54600  28.277  12.459   1.020 -0.3002  0.1438  0.1696
    1W        W54601  22.056  27.617   2.299 -0.1582 -0.1514 -0.1471
    1W        W54602   5.772   7.766   2.315 -0.1568 -0.3589 -0.0147
    1W        W54603  15.514   6.948   0.690 -0.0511 -0.1691 -0.1471
    1W        W54604  14.085  24.848   0.356 -0.0853 -0.0948 -0.2234
    1W        W54605   1.513  23.498   8.420 -0.1421  0.1725 -0.1080
    1W        W54606   7.880  11.662   9.073  0.0524  0.1662 -0.1323
    1W        W54607  23.931  14.621   0.533 -0.2878  0.0412  0.3075
    1W        W54608   4.133   8.350   8.756  0.0838 -0.3843  0.2241
    1W        W54609   5.134  14.296   1.138 -0.1852 -0.0534 -0.0502
    1W        W54610   8.489  28.728   9.209 -0.2640 -0.3998 -0.2678
    1W        W54611  11.627   7.275   1.151  0.0014  0.3423 -0.1334
    1W        W54612   4.824  24.925   1.396 -0.3189 -0.0115  0.0751
    1W        W54613  30.061  13.764   8.771  0.0940 -0.0131  0.1057
    1W        W54614  22.634  24.713   1.872 -0.0817 -0.3045 -0.0026
    1W        W54615  17.423   4.921   8.941  0.1078  0.0803 -0.1683
    1W        W54616   6.980  22.660   5.265 -0.2010 -0.1166  0.4232
    1W        W54617  12.464   6.593   8.603 -0.0463 -0.0766 -0.2040
    1W        W54618  27.914  11.058   6.330  0.3191  0.0427  0.0410
    1W        W54619  12.094   3.851   3.682  0.2073  0.0589 -0.0480
    1W        W54620  13.901  28.522   0.919  0.0878  0.1173 -0.0520
    1W        W54621   5.944  24.487   6.116  0.0373 -0.1524  0.0900
    1W        W54622  26.121   1.146   8.050 -0.2171  0.3435  0.0264
    1W        W54623  20.564   7.680   2.873 -0.0142  0.1747 -0.3153
    1W        W54624   4.169  23.699   6.289 -0.2354 -0.1566  0.2454
    1W        W54625  10.047  29.809   6.946  0.0322 -0.0777  0.0719
    1W        W54626  25.587  18.696   1.842 -0.2669  0.1277 -0.0074
    1W        W54627  15.383  14.935   7.969  0.2544  0.4332  0.1202
    1W        W54628  22.042  12.012   1.369 -0.0384 -0.1553 -0.0976
    1W        W54629  25.136  25.247   0.993 -0.1469  0.1478 -0.1814
    1W        W54630  21.127  19.020   0.836  0.0201  0.1419 -0.0760
    1W        W54631  26.337   8.397   9.061 -0.0008  0.2325  0.4009
    1W        W54632  22.616   8.774   1.045 -0.2065 -0.2248 -0.2891
    1W        W54633   0.807  25.585   7.251 -0.0679 -0.0839 -0.0088
    1W        W54634  19.373  12.082   8.508  0.4676 -0.0192  0.0209
    1W        W54635  20.625  27.830   7.768 -0.0677 -0.4756 -0.0200
    1W        W54636   1.203   0.057   8.974  0.0518  0.0570 -0.5557
    1W        W54637  25.658  28.607   6.307  0.0989 -0.0612 -0.0011
    1W        W54638  15.785  20.262   7.377  0.0131  0.3485  0.2812
    1W        W54639   0.287  23.362   0.752  0.1034  0.1851 -0.1753
    1W        W54640   4.327  28.946   1.340  0.0156 -0.0552  0.0070
    1W        W54641  16.922  11.800   0.162 -0.1872  0.3382  0.2523
    1W        W54642  24.806   4.761   7.077  0.0818 -0.1333 -0.1003
    1W        W54643  28.106  18.921   1.753 -0.1570  0.0035  0.0763
    1W        W54644   1.635  14.209   6.114  0.0111  0.1132 -0.1998
    1W        W54645  23.838  15.839   7.216 -0.0897 -0.1614 -0.2629
    1W        W54646   9.331  28.975   7.572 -0.2245  0.1638  0.0639
    1W        W54647  14.767  12.879   8.728  0.1220  0.1430 -0.0285
    1W        W54648   8.733  27.679   7.704 -0.1068 -0.2931  0.0003
    1W        W54649  15.609   9.004   0.122  0.0406  0.1265  0.0770
    1W        W54650  24.585  23.772   2.956 -0.1239 -0.0460  0.1292
    1W        W54651  16.117   4.743   2.358 -0.1309  0.1178 -0.3554
    1W        W54652  12.983  12.085   1.321  0.0458 -0.0378  0.1734
    1W        W54653   6.940   9.380   2.248 -0.1079 -0.0489  0.1296
    1W        W54654   2.796  26.863   0.554  0.0758 -0.3643 -0.0215
    1W        W54655   7.852  17.678   6.416 -0.0971  0.1543 -0.3372
    1W        W54656  17.352   4.469   9.336 -0.3452  0.1841  0.0289
    1W        W54657  10.483   3.356   7.836  0.2056 -0.0915  0.0776
    1W        W54658   7.634   6.073   0.815  0.3699 -0.3591  0.3758
    1W        W54659  15.096  23.231   8.982  0.0421 -0.1652 -0.1543
    1W        W54660   1.300  11.960   2.016 -0.0889 -0.0695 -0.3181
    1W        W54661  18.102  27.306   7.066  0.2336 -0.4166  0.0572
    1W        W54662  29.830  28.165   9.097 -0.0827 -0.0233 -0.2523
    1W        W54663  27.999  12.901   0.608 -0.0012 -0.1313 -0.2087
    1W        W54664  13.673  17.303   8.321  0.0484 -0.1082  0.2107
    1W        W54665  15.089   5.038   7.013  0.0937  0.1530 -0.0958
    1W        W54666  10.000   3.616   9.296 -0.2017  0.2214  0.0093
    1W        W54667   9.401   2.504   7.201  0.0936  0.3277 -0.0440
    1W        W54668   1.597  27.101   0.878  0.1648  0.2219 -0.2707
    1W        W54669  23.929  11.784   7.712  0.4513  0.1993 -0.0805
    1W        W54670  24.946   6.750   7.999  0.2143  0.1333 -0.2541
    1W        W54671   2.756   8.688   2.530  0.1520 -0.1334  0.0050
    1W        W54672  23.487   3.638   8.084 -0.2406  0.1638 -0.1261
    1W        W54673  29.110  12.840   0.013  0.0393  0.1187  0.1942
    1W        W54674  26.118   3.652   6.799 -0.2359  0.3227 -0.1144
    1W        W54675   9.814   7.634   3.001  0.1105 -0.0361 -0.1113
    1W        W54676  23.929   4.296   7.531  0.1411  0.1791 -0.2223
    1W        W54677  27.630  12.336   8.405  0.1567 -0.1286 -0.2171
    1W        W54678  11.520  18.960   9.297  0.0643 -0.0124  0.0224
    1W        W54679  24.538  12.656   2.887 -0.2876 -0.1853 -0.1234
    1W        W54680  30.055  29.189   7.355  0.0634  0.1372 -0.0432
    1W        W54681   7.391  13.744   7.229  0.0019  0.1803 -0.0110
    1W        W54682   8.709  26.301   0.003  0.0806  0.0656  0.1854
    1W        W54683  26.167  21.778   8.786  0.0194 -0.3104  0.0406
    1W        W54684  15.257  21.039   1.780  0.0219  0.2524  0.2672
    1W        W54685  10.651  20.513   9.045  0.3457 -0.1303 -0.2612
    1W        W54686   7.947  23.194   5.994  0.0734 -0.0367 -0.0408
    1W        W54687  26.220  29.057   2.531 -0.1473 -0.0728  0.0569
    1W        W54688  25.764  15.290   5.755  0.2785 -0.2915  0.1847
    1W        W54689   4.855  20.455   6.033 -0.3634  0.0885  0.2891
    1W        W54690   6.461   8.574   9.197 -0.1500 -0.0846  0.1052
    1W        W54691  14.195   6.277   9.161 -0.2541 -0.0881  0.0960
    1W        W54692  16.259  24.099   1.946 -0.3100 -0.1463 -0.0437
    1W        W54693  22.234  12.255   1.776  0.0382 -0.2106 -0.3786
    1W        W54694  13.006   9.744   8.687  0.2113  0.4189  0.0546
    1W        W54695   6.716  19.377   6.576  0.0212 -0.0310 -0.1584
    1W        W54696  12.998  25.149   1.927 -0.0936 -0.0008 -0.0343
    1W        W54697  14.280  14.170   0.599 -0.0619  0.2361 -0.0566
    1W        W54698  16.327   4.966   7.296  0.0924 -0.3224  0.1211
    1W        W54699   9.977  10.323   9.023 -0.0670 -0.0748  0.2413
    1W        W54700  29.371  13.200   9.075  0.1026  0.1353 -0.2074
    1W        W54701   9.617   8.822   2.319 -0.1062  0.1203  0.1576
    1W        W54702  27.625  28.920   9.325 -0.0146 -0.2550 -0.0258
    1W        W54703  23.653  29.839   1.901 -0.0049 -0.2566  0.0289
    1W        W54704  19.863  25.380   2.012 -0.2025  0.1392  0.0116
    1W        W54705  26.407  26.379   2.614  0.0682 -0.1740 -0.0501
    1W        W54706  21.001  22.341   9.034  0.1208  0.1656 -0.1626
    1W        W54707  29.864  18.366   6.234  0.0607 -0.0189  0.1956
    1W        W54708  25.336   4.884   8.579  0.0740  0.3783  0.1673
    1W        W54709  29.380   1.142   7.691 -0.0031 -0.0906 -0.1162
    1W        W54710   8.147   5.851   3.450  0.0165 -0.0553 -0.1425
    1W        W54711  11.317   8.889   0.425 -0.1711 -0.1184  0.1679
    1W        W54712  28.726  16.544   7.198  0.0265 -0.0902 -0.2721
    1W        W54713  11.293   9.694   7.544  0.0925  0.0621 -0.3102
    1W        W54714  12.595  23.934   1.148  0.1482 -0.2278  0.1125
    1W        W54715  21.181  29.104   1.557  0.0089  0.0183  0.1813
    1W        W54716  18.694  25.558   2.929  0.1259 -0.0403 -0.1814
    1W        W54717  11.063  28.274   0.734  0.0248  0.2112 -0.1109
    1W        W54718  29.021  29.582   0.376  0.2227 -0.0998  0.3075
    1W        W54719  13.153   3.864   8.368 -0.0521 -0.1014  0.1211
    1W        W54720  17.145   3.017   8.896  0.1283  0.1132  0.1444
    1W        W54721  18.418   1.259   2.978  0.0436  0.1175 -0.0379
    1W        W54722  26.155  27.578   7.768  0.1187 -0.0108 -0.3750
    1W        W54723  19.714   3.565   8.758 -0.1842  0.2351 -0.1710
    1W        W54724   7.726   2.670   2.929 -0.0982 -0.0223 -0.2655
    1W        W54725   2.465   2.748   7.162  0.1428  0.1465 -0.1987
    1W        W54726  22.869  24.336   8.173  0.1603 -0.2362  0.3613
    1W        W54727  10.839   5.122   7.447  0.0360 -0.0033 -0.0782
    1W        W54728  17.765  25.837   3.340  0.3598 -0.0515  0.1309
    1W        W54729  25.835  21.255   6.147 -0.1631  0.3538 -0.4400
    1W        W54730  13.331  23.571   7.190 -0.1755 -0.0641  0.0766
    1W        W54731  18.202  20.304   7.673 -0.2005 -0.2539  0.4476
    1W        W54732  27.191  14.216   7.134  0.2297 -0.1740 -0.1913
    1W        W54733   6.204   5.040   7.854  0.0825  0.2035 -0.0566
    1W        W54734   3.830   1.761   0.611  0.1249  0.1551 -0.1779
    1W        W54735  19.449   3.279   8.305 -0.2200 -0.3040 -0.0217
    1W        W54736  24.208  17.405   0.392  0.3464  0.2508  0.0060
    1W        W54737  12.523   1.884   2.232  0.1065 -0.1758 -0.2419
    1W        W54738  29.275  23.602   7.598  0.2291 -0.0574  0.1109
    1W        W54739   6.117   8.552   1.561 -0.2364 -0.0768  0.0035
    1W        W54740  10.830  22.429   7.190  0.0127 -0.1530  0.2506
    1W        W54741  11.183  28.795   8.230 -0.0381  0.2709 -0.3258
    1W        W54742   5.840  22.519   8.222  0.0423 -0.1864  0.0625
    1W        W54743   4.490   8.256   2.581  0.1118 -0.1715 -0.2509
    1W        W54744   9.490  15.943   2.136 -0.1033 -0.2579 -0.2536
    1W        W54745   3.595   6.960   2.185 -0.0304 -0.1821 -0.2271
    1W        W54746  18.649   6.256   0.616 -0.0045  0.1959 -0.2682
    1W        W54747   4.402   4.257   8.490 -0.0073  0.0513 -0.0843
    1W        W54748  16.978   4.421   1.246  0.3843  0.1226  0.0838
    1W        W54749  12.299  12.169   8.559 -0.0220  0.1955 -0.0420
    1W        W54750   0.526   3.058   7.000  0.0026  0.1647 -0.1067
    1W        W54751  17.323  25.064   6.779 -0.1747  0.3271 -0.0709
    1W        W54752   1.791  13.781   0.117 -0.0268  0.0517 -0.0088
    1W        W54753   6.879  29.482   0.990  0.3692 -0.0476  0.0012
    1W        W54754  27.321  15.907   2.410 -0.1514 -0.1341  0.0267
    1W        W54755   7.082  29.496   1.956 -0.0530  0.2401 -0.1529
    1W        W54756  20.614  28.154   2.449  0.1377  0.1651  0.1662
    1W        W54757  20.401  15.996   1.673  0.0921 -0.0659  0.0730
    1W        W54758  14.026  25.142   7.134 -0.0199  0.2197  0.2524
    1W        W54759  14.206  27.775   9.293 -0.3389 -0.0236  0.0587
    1W        W54760  24.543  22.527   9.325 -0.1142 -0.0303  0.1261
    1W        W54761   0.083  22.884   7.480  0.0966 -0.1333  0.2783
    1W        W54762  15.841   0.444   6.785 -0.1032 -0.0263  0.1430
    1W        W54763   5.592  19.693   1.640  0.0183  0.3739  0.2810
    1W        W54764   3.760  19.679   7.656  0.0303 -0.0292 -0.1260
    1W        W54765   6.552  19.638   8.073 -0.1073 -0.0600  0.2403
    1W        W54766  21.999  18.900   7.116  0.2656 -0.1165  0.1942
    1W        W54767   9.919  19.389   1.175 -0.1127  0.5794 -0.0113
    1W        W54768   5.833  16.295   0.003  0.0210  0.0202  0.2177
    1W        W54769   4.280  11.237   7.777 -0.1349  0.1791  0.0672
    1W        W54770   0.475   0.141   3.172 -0.0160 -0.0092  0.1074
    1W        W54771  14.598  20.349   8.031  0.1681 -0.0733 -0.1710
    1W        W54772  25.509  27.217   8.577 -0.2497 -0.0408  0.2835
    1W        W54773   3.114  23.204   0.060  0.1607 -0.0145 -0.2349
    1W        W54774  22.562  22.648   2.313 -0.0437  0.2923 -0.0124
    1W        W54775   1.509  28.377   0.861  0.2069 -0.1241  0.1956
    1W        W54776   3.958  23.531   6.736 -0.0738 -0.0521  0.0428
    1W        W54777   8.506   4.733   2.533  0.2464 -0.1653 -0.0004
    1W        W54778  24.427   0.391   7.708  0.3508  0.0438 -0.0331
    1W        W54779   9.368  11.685   0.570 -0.0345  0.0125  0.0568
    1W        W54780  17.430  12.174   6.991 -0.1386  0.0639  0.0963
    1W        W54781  20.674  22.378   6.103  0.1534  0.0698  0.2518
    1W        W54782   2.747  17.068   7.273  0.2634 -0.0315  0.0391
    1W        W54783   0.870   4.033   9.329 -0.1111 -0.0791  0.0824
    1W        W54784  23.499   0.841   0.361  0.0257 -0.3601  0.0694
    1W        W54785  26.348  29.393   7.599  0.1294  0.3878 -0.0425
    1W        W54786  16.050  14.449   0.203 -0.0467 -0.4103  0.0757
    1W        W54787  23.740  29.606   2.324 -0.1289  0.0384  0.1252
    1W        W54788  29.344   6.672   7.013  0.0476  0.1885  0.0270
    1W        W54789  29.610  25.606   0.379 -0.3995 -0.2008  0.1117
    1W        W54790   7.737   3.547   1.999 -0.0280  0.0257  0.3164
    1W        W54791  11.692  13.484   1.372 -0.0681 -0.1220  0.2624
    1W        W54792  14.031  17.792   8.991 -0.1500  0.1155 -0.4026
    1W        W54793  21.602  27.778   7.615 -0.3944  0.0966  0.2272
    1W        W54794  28.647   3.140   1.559 -0.2227  0.2328 -0.3031
    1W        W54795   2.584  12.681   7.257  0.0524  0.0002 -0.0123
    1W        W54796   7.012   4.529   0.882  0.0494  0.2070 -0.0563
    1W        W54797   4.418   4.043   2.286  0.4910  0.0201 -0.0657
    1W        W54798  21.405   4.902   8.553  0.0189  0.0753  0.0169
    1W        W54799  10.157  21.159   7.532  0.3237  0.0110  0.0003
    1W        W54800  16.540  22.476   8.045 -0.0859 -0.0930  0.2029
    1W        W54801  21.271  14.841   8.031  0.2769  0.1147  0.2074
    1W        W54802  15.659  26.787   1.847  0.0652 -0.1368 -0.4265
    1W        W54803   0.935  23.081   5.913 -0.3236 -0.0449  0.0508
    1W        W54804  12.081   3.921   3.082 -0.0727  0.0773  0.1728
    1W        W54805  28.415  27.784   2.651 -0.2357  0.1176  0.3226
    1W        W54806   9.381  25.184   7.712 -0.0817 -0.2116 -0.2985
    1W        W54807  13.356  11.514   8.159  0.3327 -0.2474  0.0013
    1W        W54808  15.452  22.167   0.395 -0.1610  0.1095  0.0423
    1W        W54809  18.941  23.348   7.567 -0.0659 -0.0313  0.1290
    1W        W54810  27.881   0.848   0.069  0.0743 -0.0670  0.2317
    1W        W54811   0.792   5.098   0.220  0.2970  0.2195  0.2500
    1W        W54812   8.631  13.090   2.682  0.1224 -0.0608  0.1151
    1W        W54813  18.734  27.847   0.212  0.3400  0.1365 -0.1103
    1W        W54814  12.971   9.257   2.669  0.0419 -0.4266 -0.2183
    1W        W54815  14.969  23.664   0.818  0.0592  0.2191  0.0400
    1W        W54816  22.948   4.167   0.039  0.2082  0.0030 -0.0867
    1W        W54817   6.357   7.288   2.145  0.2188 -0.2825  0.3816
    1W        W54818  13.592  18.278   2.278 -0.3505 -0.3347 -0.0880
    1W        W54819  21.937  28.287   7.968 -0.0149 -0.1080 -0.1528
    1W        W54820  17.013   7.787   0.703  0.2616 -0.2000  0.0310
    1W        W54821  18.688  23.050   8.151 -0.3335 -0.3239  0.0346
    1W        W54822   7.266  28.486   1.639 -0.1664 -0.0605  0.1190
    1W        W54823  27.625   1.034   2.074  0.1676  0.2077 -0.1849
    1W        W54824  15.456  26.023   1.198  0.0635  0.1425  0.0690
    1W        W54825   0.407  11.211   1.772  0.1406  0.0796  0.0760
    1W        W54826  21.153   4.831   1.485 -0.2151  0.0382 -0.1250
    1W        W54827  14.440  19.606   0.274 -0.1876  0.0025  0.2169
    1W        W54828   1.534  12.574   0.861  0.1661  0.1864 -0.0334
    1W        W54829   2.173  21.000   6.035  0.0215 -0.1536 -0.0173
    1W        W54830  22.638  21.503   1.454  0.0578 -0.3383  0.1807
    1W        W54831   4.092  21.416   1.392  0.0533 -0.1370  0.6243
    1W        W54832  10.808   1.360   3.184  0.1762 -0.1242  0.0960
    1W        W54833  19.470   0.366   9.089  0.0076  0.0552 -0.0434
    1W        W54834  26.506   1.977   8.012 -0.2508 -0.0310 -0.3299
    1W        W54835  16.495  21.345   7.644 -0.2053  0.0153 -0.1304
    1W        W54836   4.305  28.016   8.006  0.0449 -0.0904 -0.2025
    1W        W54837  10.285   1.464   0.666 -0.0481  0.5321 -0.0001
    1W        W54838  27.497  23.504   8.841  0.2954  0.1900  0.4108
    1W        W54839   4.420  29.310   2.681 -0.0422 -0.2308 -0.2348
    1W        W54840  18.580   1.147   2.406  0.0154 -0.1440  0.0584
    1W        W54841   5.314   5.684   9.227  0.0512 -0.1555  0.0318
    1W        W54842  17.169   6.987   8.002  0.1177  0.1311 -0.1488
    1W        W54843  19.942  22.639   0.037  0.2698 -0.0335  0.0583
    1W        W54844  12.625  15.877   9.064  0.2582  0.0475  0.0825
    1W        W54845   2.500   3.730   1.500 -0.1796  0.2793  0.1491
    1W        W54846  16.853   1.260   8.892  0.1407  0.0475 -0.2362
    1W        W54847  20.557  26.925   0.914 -0.0513  0.0196  0.2419
    1W        W54848   2.658  15.240   6.901 -0.3610  0.0603 -0.0840
    1W        W54849  29.500  26.849   1.561  0.0152  0.0803 -0.0234
    1W        W54850  17.215  14.473   1.686 -0.0370 -0.0984 -0.1277
    1W        W54851  17.162   5.352   1.135 -0.1800  0.3008 -0.0651
    1W        W54852  25.623   7.033   6.705 -0.0455  0.1058 -0.0182
    1W        W54853  20.736   2.602   1.336  0.4090 -0.0389 -0.0439
    1W        W54854   8.331  12.711   2.476  0.1707  0.1677 -0.2168
    1W        W54855  24.448   8.543   8.260  0.2398 -0.3071  0.1776
    1W        W54856  15.536  12.450   7.857  0.2840 -0.0173 -0.1055
    1W        W54857  16.856  15.924   7.768  0.1900 -0.1175  0.0886
    1W        W54858  19.792   2.447   8.162  0.0324  0.1826  0.1472
    1W        W54859  20.845  20.901   1.143 -0.1245  0.0954  0.0113
    1W        W54860  11.262  14.228   1.044 -0.1374  0.0290  0.2698
    1W        W54861  26.787   6.298   6.421  0.0604  0.0473  0.0824
    1W        W54862  18.482  27.118   7.347  0.2230  0.4164 -0.4306
    1W        W54863  14.606  25.143   6.075 -0.0698  0.0772  0.1973
    1W        W54864  19.206  10.794   8.908  0.0550  0.0692 -0.0538
    1W        W54865   0.562  18.781   1.642 -0.3100  0.1062 -0.0102
    1W        W54866  14.283  15.420   7.169  0.0281  0.0681  0.1987
    1W        W54867  13.099  20.123   2.602  0.0930 -0.0105 -0.1843
    1W        W54868  12.012   4.842   2.693  0.1299 -0.1541  0.0698
    1W        W54869   2.738  29.234   2.115  0.0214  0.0304  0.1941
    1W        W54870   9.331  12.118   0.802 -0.2879 -0.1505 -0.3472
    1W        W54871  10.600  14.228   0.189  0.0025  0.2941  0.0855
    1W        W54872  27.701  10.295   2.130  0.2841  0.1444  0.0570
    1W        W54873   2.496   9.811   0.514 -0.2614  0.0678 -0.1973
    1W        W54874   8.401  24.579   8.620 -0.1267  0.0927 -0.1693
    1W        W54875   6.865   8.084   1.958  0.1348 -0.1660  0.2541
    1W        W54876  21.285  12.101   7.351  0.1390 -0.0321 -0.0390
    1W        W54877  12.549   9.943   2.777 -0.3807  0.0209  0.2487
    1W        W54878  13.253  17.647   1.569  0.1218  0.2466 -0.0812
    1W        W54879   1.594  10.980   9.373  0.1234 -0.0031  0.1345
    1W        W54880  26.622  12.388   9.305 -0.0963  0.3058 -0.1729
    1W        W54881   3.998  12.677   9.263  0.0892 -0.1523  0.1933
    1W        W54882  18.164  14.122   7.824 -0.2709 -0.1856  0.1753
    1W        W54883   5.203   0.493   1.709  0.1379 -0.4520 -0.1108
    1W        W54884  26.598  13.928   0.314  0.3067 -0.0148  0.0552
    1W        W54885  16.565  12.427   8.012  0.0878  0.1098 -0.1076
    1W        W54886  16.554   9.558   8.358  0.2715  0.1586 -0.1892
    1W        W54887   0.345  11.176   0.745 -0.0000  0.1971 -0.3737
    1W        W54888  27.380  24.829   0.261  0.0236  0.3189  0.1783
    1W        W54889   3.352  11.743   2.590 -0.0853 -0.0202 -0.2254
    1W        W54890  14.080  12.824   7.139  0.0412  0.2513  0.0315
    1W        W54891  14.621  18.978   1.408 -0.1115  0.2034  0.1205
    1W        W54892  14.048   8.326   0.894  0.2526  0.2526  0.1580
    1W        W54893   7.806  17.242   0.698 -0.0265  0.0158 -0.1539
    1W        W54894  29.784   5.494   8.941  0.0023  0.0811 -0.1268
    1W        W54895  26.572  19.731   7.306 -0.0129  0.2691 -0.5903
    1W        W54896  24.624  10.985   1.513  0.0708  0.3571  0.1951
    1W        W54897  15.664   7.094   9.207 -0.1967 -0.0019 -0.0143
    1W        W54898  27.664  17.616   8.329 -0.2089  0.1951  0.3267
    1W        W54899  20.371   5.180   8.578 -0.1025 -0.1261  0.0229
    1W        W54900  13.817  25.532   0.734  0.1534  0.0673 -0.2158
    1W        W54901  21.807   6.443   2.872  0.1259 -0.1175  0.4506
    1W        W54902  18.521  19.586   1.356 -0.2424  0.1669 -0.3016
    1W        W54903  29.917   6.892   1.242 -0.0594 -0.3781  0.2350
    1W        W54904  15.840  25.180   7.120 -0.2949  0.1943  0.2264
    1W        W54905  17.105   5.057   0.756  0.0959  0.0616 -0.1671
    1W        W54906  20.708  29.297   7.397  0.4051 -0.0798 -0.1753
    1W        W54907   8.137  27.038   0.579  0.0656 -0.1801 -0.3017
    1W        W54908   4.464  13.209   7.217 -0.2696 -0.0815 -0.1606
    1W        W54909  22.427  11.306   0.514  0.2246 -0.0861  0.2467
    1W        W54910  14.289   7.319   2.685  0.1719 -0.1647  0.1140
    1W        W54911  19.433   0.993   0.599  0.0069  0.0411 -0.2356
    1W        W54912  20.972  23.162   1.933 -0.4280  0.1810 -0.0511
    1W        W54913  24.518  21.060   7.401 -0.1371 -0.0736  0.1804
    1W        W54914  27.512   0.470   9.107 -0.0206 -0.1940 -0.0106
    1W        W54915  20.331  10.780   8.547 -0.2742  0.1260 -0.1554
    1W        W54916   9.050  21.596   1.047  0.0183 -0.0551  0.1076
    1W        W54917  22.572  13.995   7.890  0.2179  0.0654 -0.1985
    1W        W54918   8.879  26.616   8.929  0.0428  0.0538  0.0425
    1W        W54919   4.997  18.133   0.748  0.1509  0.0913  0.1828
    1W        W54920  26.660  24.764   9.059  0.0478  0.4217 -0.4472
    1W        W54921  20.536  25.637   2.348 -0.0078 -0.0134  0.1597
    1W        W54922  28.558  12.682   0.660  0.0463 -0.0004  0.1484
    1W        W54923  22.718  10.615   0.033  0.0757 -0.1764  0.0982
    1W        W54924  20.319   4.625   7.906 -0.1558  0.1967 -0.1540
    1W        W54925  19.023  25.039   8.081 -0.0411  0.0620  0.1186
    1W        W54926  24.805  22.169   3.010  0.2020  0.0332  0.0900
    1W        W54927  15.958  10.305   0.965  0.3266 -0.1910  0.1218
    1W        W54928  19.377  28.567   2.300 -0.0129  0.2076 -0.3793
    1W        W54929  27.986  20.586   0.184 -0.0426 -0.1783  0.0903
    1W        W54930   6.588  13.235   7.557 -0.0695  0.4626  0.1375
    1W        W54931  19.509  20.928   8.071  0.1137 -0.1305 -0.2600
    1W        W54932  21.992  19.665   7.976 -0.0441  0.0354 -0.0680
    1W        W54933   2.380  19.701   6.350  0.1031  0.0001 -0.3519
    1W        W54934   2.678   3.940   8.422  0.0273  0.0841  0.0013
    1W        W54935   3.193  16.225   9.189  0.1416 -0.0800 -0.2266
    1W        W54936  18.246  18.202   0.902  0.1104  0.0127 -0.1312
    1W        W54937  14.792  19.391   1.689 -0.1531  0.0198 -0.0960
    1W        W54938  14.240   1.627   9.181  0.1995 -0.1540  0.0219
    1W        W54939  11.504   5.916   0.464  0.1386  0.1192  0.0150
    1W        W54940  12.183  29.818   2.586 -0.1408 -0.0215  0.1061
    1W        W54941  19.794  23.965   1.449  0.0038  0.1507  0.1273
    1W        W54942  12.890   5.718   2.715  0.2958 -0.2569 -0.1214
    1W        W54943  10.973  24.274   0.833  0.0420 -0.2761  0.1660
    1W        W54944   5.010   2.273   7.534 -0.0609  0.2342  0.1394
    1W        W54945   0.761  27.360   2.267  0.1303  0.0546  0.0820
    1W        W54946  15.592  17.645   9.327  0.1878 -0.0377 -0.3908
    1W        W54947   8.099   9.642   8.626 -0.2758  0.1464 -0.0069
    1W        W54948   9.309  19.059   6.301 -0.1035 -0.0753 -0.1438
    1W        W54949   4.136  26.597   7.710 -0.1355  0.2589 -0.1301
    1W        W54950   1.963   3.679   1.376 -0.4682  0.3185  0.2463
    1W        W54951  16.544   5.964   2.281 -0.0698  0.0613  0.3523
    1W        W54952  17.948  23.587   8.371  0.0035 -0.0262  0.0288
    1W        W54953   1.159  13.856   7.412 -0.0221  0.0353 -0.0234
    1W        W54954  10.332   3.940   9.068  0.1857  0.2056  0.1133
    1W        W54955  19.448  16.762   7.879  0.1274 -0.0318 -0.1364
    1W        W54956   5.797  19.525   8.527 -0.2481 -0.2605 -0.0019
    1W        W54957  26.668  28.726   1.293 -0.0293  0.1228 -0.2720
    1W        W54958  28.698  21.541   1.960 -0.0019  0.1665  0.1058
    1W        W54959  14.965   9.893   7.792 -0.3264  0.1585  0.0739
    1W        W54960   9.093  24.472   2.637  0.1684  0.1716 -0.0623
    1W        W54961   5.035   0.116   9.369  0.2143  0.0908 -0.0894
    1W        W54962   1.729  18.241   0.049 -0.1391 -0.0589 -0.1076
    1W        W54963  15.624   0.339   8.244 -0.0121  0.2514 -0.0895
    1W        W54964  17.535  18.512   8.530  0.0233 -0.3054  0.0989
    1W        W54965   7.009  27.747   8.623 -0.0513  0.1360 -0.0818
    1W        W54966  23.539   6.581   7.211  0.1168  0.1481 -0.0858
    1W        W54967   2.519  29.790   0.182  0.1819  0.0059 -0.4869
    1W        W54968   6.840   5.352   7.025 -0.2103 -0.0238 -0.3102
    1W        W54969   2.987  17.269   8.736  0.0753  0.0773 -0.1504
    1W        W54970   7.479  30.154   0.670  0.2096 -0.0504  0.2879
    1W        W54971  18.633  17.548   7.159  0.0229  0.5194  0.2795
    1W        W54972   9.339  18.060   0.695  0.3765 -0.0970  0.0879
    1W        W54973  19.520  16.099   9.008  0.0393 -0.2295 -0.0129
    1W        W54974  20.108  27.415   7.790 -0.2788 -0.0675 -0.1344
    1W        W54975  11.157   6.676   8.077 -0.0817 -0.1978  0.2580
    1W        W54976   0.632  12.579   7.096  0.3360  0.1221 -0.2124
    1W        W54977  21.570   3.866   0.339 -0.2883 -0.0232 -0.1150
    1W        W54978  10.444   1.100   1.057 -0.2856 -0.1485  0.1164
    1W        W54979   8.381  25.061   8.167  0.0293 -0.1303  0.5252
    1W        W54980   5.916   4.985   2.201 -0.4476  0.2374 -0.2668
    1W        W54981   2.289  30.002   6.678 -0.1056  0.1286 -0.0681
    1W        W54982  10.236  21.810   0.501 -0.1932  0.0383 -0.2288
    1W        W54983  11.243  27.390   7.127  0.0861 -0.1488 -0.0516
    1W        W54984   2.347  16.504   8.979 -0.0795  0.0570 -0.4143
    1W        W54985  15.638   8.083   8.049 -0.2246  0.2059 -0.1843
    1W        W54986  23.549  21.651   9.024 -0.0564 -0.0552 -0.1212
    1W        W54987  10.601  25.646   7.301  0.1320  0.2697 -0.0391
    1W        W54988  25.920   2.248   6.084 -0.1111 -0.0527 -0.1766
    1W        W54989  23.304  28.056   7.268 -0.1832  0.0098  0.0470
    1W        W54990  28.899   8.220   8.607  0.3689 -0.0286  0.0229
    1W        W54991  24.901   9.151   2.033 -0.0336  0.1094 -0.1183
    1W        W54992  13.597  26.966   5.959 -0.0600 -0.3021 -0.2583
    1W        W54993  16.984   6.840   2.059 -0.1651 -0.2037  0.0534
    1W        W54994   0.093  23.060   1.787 -0.1896  0.2266 -0.3580
    1W        W54995  11.375   8.810   8.659 -0.0394  0.0669  0.0680
    1W        W54996  12.902  25.189   2.399  0.2987  0.3692 -0.0994
    1W        W54997  11.850  27.688   7.240 -0.1495  0.0069  0.1173
    1W        W54998  13.229  27.468   9.391  0.1438  0.1818 -0.0510
    1W        W54999  16.226   6.785   8.609  0.1478 -0.0403  0.0123
    1W        W55000  21.390  30.058   6.751  0.2035  0.4216 -0.0491
    1W        W55001  29.650  26.535   1.908 -0.0681  0.0484  0.1401
    1W        W55002  14.975  11.738   2.087  0.1072  0.1559 -0.2420
    1W        W55003   3.204   8.522   9.188  0.2590 -0.1722  0.0091
    1W        W55004  29.149  23.947   9.222  0.1284  0.0183  0.2364
    1W        W55005  10.321  20.372   8.051 -0.0476 -0.1284 -0.2769
    1W        W55006  11.545  24.554   7.251 -0.1437 -0.3275 -0.1193
    1W        W55007   1.631   8.541   0.786 -0.2734  0.1881  0.0479
    1W        W55008  25.922  25.683   7.512  0.0193 -0.0139 -0.2165
    1W        W55009  19.972  15.743   6.789  0.1267 -0.0633  0.0335
    1W        W55010  16.189   8.820   2.681 -0.3282 -0.2287  0.2110
    1W        W55011  26.255  23.375   1.038  0.2402 -0.3331  0.2307
    1W        W55012  15.887  19.313   0.963  0.0647  0.1156 -0.1057
    1W        W55013  23.157   8.002   2.576 -0.0266 -0.0448 -0.0546
    1W        W55014  11.962  28.442   2.813 -0.0832  0.2879 -0.1504
    1W        W55015   5.442  12.507   7.855 -0.0914  0.0941 -0.0576
    1W        W55016  24.162  20.408   6.953 -0.0663  0.1082  0.3859
    1W        W55017  13.178   1.920   7.688  0.0566 -0.1966 -0.1163
    1W        W55018  12.317  17.237   9.186 -0.2679 -0.0698 -0.1872
    1W        W55019  15.608  27.970   8.507 -0.3017  0.2004  0.0586
    1W        W55020  22.203   8.960   1.248 -0.2233  0.1297 -0.4539
    1W        W55021  22.162   8.795   8.768  0.0203  0.1091  0.2520
    1W        W55022  10.062  16.441   0.646  0.2115  0.1782 -0.0251
    1W        W55023  11.610  28.080   2.929  0.2593 -0.2107  0.1092
    1W        W55024  25.084   8.966   0.359 -0.1614  0.0717  0.1043
    1W        W55025   1.831  26.481   7.759 -0.3838 -0.1134  0.0091
    1W        W55026  20.790  22.094   0.373 -0.0821 -0.0533 -0.1668
    1W        W55027  13.890   4.043   1.927  0.0120 -0.2314  0.0359
    1W        W55028  28.157  26.138   2.138  0.0603 -0.0428 -0.0764
    1W        W55029   2.396  12.436   1.776  0.0030 -0.2894 -0.3556
    1W        W55030  21.268   2.471   6.515 -0.3116  0.2276  0.0888
    1W        W55031  26.089  25.003   8.853 -0.0243 -0.0187  0.1661
    1W        W55032  23.792  19.971   8.981 -0.1455 -0.0767  0.1807
    1W        W55033   0.226  21.103   1.618 -0.1842  0.0412 -0.3332
    1W        W55034  11.338  15.397   9.227  0.2879 -0.0113  0.1814
    1W        W55035  15.800   1.264   2.274  0.0505  0.2123  0.0996
    1W        W55036  29.883  27.108   0.559 -0.1594  0.2033  0.2124
    1W        W55037  22.246   7.431   8.978  0.1406  0.1201  0.0136
    1W        W55038  19.712  22.552   8.532 -0.1794 -0.1355 -0.2320
    1W        W55039  18.771  10.628   8.559 -0.1417  0.0836 -0.1692
    1W        W55040  24.122   0.434   0.973  0.0691  0.0063  0.1996
    1W        W55041   7.687   6.151   3.305 -0.0004  0.0744  0.0298
    1W        W55042  17.618  22.103   0.874  0.0799 -0.1216 -0.1580
    1W        W55043  24.587  26.953   7.018 -0.2568  0.1965  0.5115
    1W        W55044  22.495  26.225   6.258 -0.1579 -0.3178  0.1920
    1W        W55045   2.838   5.302   7.893  0.1518  0.1205 -0.0028
    1W        W55046   9.176   8.064   7.550  0.0510  0.1157 -0.1760
    1W        W55047  15.414  18.323   7.779  0.4270  0.1852  0.0996
    1W        W55048  23.731  22.498   7.557 -0.3711  0.1438  0.1239
    1W        W55049  29.867  29.119   3.217 -0.0674  0.0272  0.1304
    1W        W55050   8.188  24.247   1.967  0.1921 -0.2519  0.0241
    1W        W55051   9.612  28.755   1.171  0.0350 -0.0999  0.0016
    1W        W55052  30.093  24.008   2.343 -0.3155 -0.3305 -0.1241
    1W        W55053   0.445   8.163   8.887  0.2041  0.0667 -0.0234
    1W        W55054  15.660  28.255   3.195  0.2368  0.0832  0.0513
    1W        W55055  10.189  19.122   8.067 -0.2033  0.4166 -0.1759
    1W        W55056  14.142   6.154   2.995 -0.0776  0.0157  0.0805
    1W        W55057   1.671   0.655   3.360 -0.0200 -0.1383 -0.0959
    1W        W55058  19.520  21.705   7.116 -0.1023  0.2086 -0.4576
    1W        W55059   4.676  24.535   6.164 -0.0539  0.1357  0.0783
    1W        W55060  24.081  20.919   1.218  0.1011  0.0616 -0.1764
    1W        W55061  13.162   3.366   0.511 -0.0639 -0.1761  0.2212
    1W        W55062  11.257  21.377   8.630  0.3352  0.3354 -0.1211
    1W        W55063  24.278  21.567   7.381  0.1213 -0.0822 -0.4578
    1W        W55064  20.947  20.514   6.774 -0.2443 -0.1721 -0.2107
    1W        W55065  19.239  19.383   8.247  0.0384  0.0739  0.1584
    1W        W55066   0.230  10.637   1.944  0.0415 -0.3740  0.1462
    1W        W55067  22.886  11.148   0.373  0.2238 -0.0537  0.1184
    1W        W55068  17.855   3.396   2.391 -0.1201  0.1688 -0.2046
    1W        W55069   0.250  14.273   0.085 -0.0368  0.0378  0.3059
    1W        W55070  27.494  13.396   1.370  0.1534  0.2119  0.1647
    1W        W55071  16.894  22.366   7.636  0.2899 -0.1491  0.0692
    1W        W55072   1.499   4.613   7.736 -0.0994  0.0741 -0.2715
    1W        W55073   0.794  28.290   7.290 -0.2093  0.2265  0.0826
    1W        W55074   4.836  25.446   1.209 -0.2304  0.0846  0.1849
    1W        W55075  25.440   9.376   0.393  0.1373  0.0126  0.3091
    1W        W55076   5.688  11.637   7.051  0.0690  0.0514  0.0502
    1W        W55077   0.102  29.611   0.635  0.3435  0.1370 -0.0930
    1W        W55078   8.171  10.789   2.583 -0.2588  0.0858  0.0646
    1W        W55079  14.856  12.204   0.558 -0.0940 -0.0860  0.1880
    1W        W55080  17.584  13.725   0.999  0.3847 -0.1400 -0.1131
    1W        W55081  13.161   1.775   8.172 -0.1029  0.4236  0.3335
    1W        W55082  20.915  15.132   1.607 -0.3164 -0.1037  0.0924
    1W        W55083   1.376  18.451   6.672 -0.0151  0.1830  0.0448
    1W        W55084  11.066   8.411   1.282  0.0414  0.0075 -0.2029
    1W        W55085  21.886   9.314   2.522  0.2150  0.1793  0.1641
    1W        W55086   2.687  27.351   1.702 -0.2176 -0.1714 -0.1264
    1W        W55087   1.163  18.211   5.920  0.2732 -0.1022  0.0892
    1W        W55088  22.757  11.588   9.066  0.4674 -0.1631 -0.1950
    1W        W55089  19.201  28.253   2.648  0.2143  0.0859 -0.1953
    1W        W55090   9.720  12.718   1.472 -0.1522  0.1373 -0.0359
    1W        W55091  15.042   8.006   0.780 -0.2496 -0.2997 -0.0604
    1W        W55092  16.714   0.435   3.716  0.2389  0.0456 -0.1015
    1W        W55093   8.321   9.380   8.988  0.0139 -0.1893 -0.0881
    1W        W55094  18.790   5.773   8.260  0.2699 -0.1608  0.3236
    1W        W55095   5.590  26.118   7.739 -0.0878  0.0929 -0.1125
    1W        W55096  12.664  25.599   0.337  0.0395  0.0139  0.1981
    1W        W55097   3.871  27.895   8.209  0.1261 -0.0519 -0.0708
    1W        W55098  19.697  14.359   1.063  0.0908 -0.1232 -0.1260
    1W        W55099   9.158  21.590   6.119 -0.0118  0.1023  0.1322
    1W        W55100  12.200  13.232   0.589 -0.1906 -0.1881  0.3504
    1W        W55101  20.622  29.126   8.501  0.0532  0.1145  0.2012
    1W        W55102  18.107  28.843   0.736  0.1656 -0.1421 -0.0970
    1W        W55103  12.633   3.259   2.983 -0.1569 -0.0702 -0.1311
    1W        W55104   5.705  14.063   1.784  0.0251  0.0443  0.1782
    1W        W55105  13.981  20.106   9.286  0.1530 -0.0437 -0.1737
    1W        W55106  23.359  24.879   0.661 -0.3340  0.2979 -0.0512
    1W        W55107   7.866   1.860   8.649 -0.1192 -0.1544  0.2122
    1W        W55108  28.756  27.571   0.812 -0.0465 -0.0256 -0.0303
    1W        W55109  14.460  15.447   2.537  0.1042 -0.1316  0.0695
    1W        W55110  16.373  23.200   7.597  0.0105  0.0398 -0.1323
    1W        W55111  13.777  19.727   0.977  0.0693  0.1279  0.0280
    1W        W55112  20.803  16.874   9.094 -0.0684  0.0828 -0.0589
    1W        W55113  11.575   0.476   7.810 -0.1567 -0.3172  0.1593
    1W        W55114   0.116  21.066   0.611 -0.2361 -0.0641 -0.1184
    1W        W55115  26.828  24.677   1.018  0.2154  0.1150 -0.1376
    1W        W55116  13.448  24.900   3.229 -0.1056 -0.3197  0.0828
    1W        W55117  27.313  27.680   2.168  0.2728 -0.1684 -0.2628
    1W        W55118  23.767  19.159   7.595 -0.0906 -0.0069  0.1281
    1W        W55119  21.289  27.394   9.317  0.1626 -0.2997 -0.0651
    1W        W55120  13.613  14.098   1.665 -0.0522 -0.0329 -0.1878
    1W        W55121   9.500   6.544   7.551  0.1265  0.0707  0.0179
    1W        W55122  14.677  27.494   3.552 -0.0653  0.0279  0.0451
    1W        W55123   2.043  16.007   6.826 -0.0068 -0.2026 -0.0657
    1W        W55124  25.863  21.060   6.607  0.1886  0.1440  0.3470
    1W        W55125   8.661  26.688   1.272  0.0414 -0.0329 -0.2918
    1W        W55126   6.131  19.151   0.140  0.0588  0.1196 -0.1683
    1W        W55127  18.695   5.930   1.885 -0.0553 -0.1281  0.1022
    1W        W55128  18.806   5.316   0.087 -0.1068 -0.1449  0.1749
    1W        W55129  19.343  21.554   7.543  0.0752  0.1449  0.1594
    1W        W55130   2.151   7.333   1.092 -0.0973 -0.1433 -0.0369
    1W        W55131   3.853  16.510   7.092  0.0443  0.1123  0.1433
    1W        W55132  20.638  21.683   7.901 -0.0468  0.0604  0.3264
    1W        W55133  30.049  26.665   0.436  0.1005  0.0883  0.2818
    1W        W55134  16.831  15.346   7.567  0.0881  0.2210  0.0482
    1W        W55135   0.581   8.712   7.686 -0.0907 -0.1203 -0.2661
    1W        W55136  10.199  22.465   1.399 -0.0571  0.0205  0.2017
    1W        W55137  19.358   9.605   1.314 -0.1116 -0.3172 -0.0256
    1W        W55138   6.599  18.715   8.740  0.3482  0.2173  0.1745
    1W        W55139  16.288  19.396   7.834  0.0624 -0.1489 -0.0337
    1W        W55140   8.492  26.620   1.738  0.1395 -0.0423  0.2306
    1W        W55141   4.243  16.973   0.542 -0.0249  0.1641  0.0541
    1W        W55142  21.997  25.208   8.722 -0.4062 -0.0792  0.0347
    1W        W55143   9.165  17.801   7.046 -0.1092 -0.0885  0.2445
    1W        W55144  13.766  23.661   0.959 -0.0457  0.0253  0.1976
    1W        W55145  11.543  10.492   1.506 -0.0672 -0.0164 -0.1468
    1W        W55146   7.281  27.581   1.051 -0.0368  0.3664  0.1412
    1W        W55147  25.142   1.448   0.903 -0.0049  0.3208  0.0457
    1W        W55148  29.741  10.499   7.577  0.2502  0.0510  0.4417
    1W        W55149  14.739   0.672   8.302 -0.0688  0.2629 -0.0179
    1W        W55150   2.716   5.485   8.357  0.1536 -0.0270  0.0385
    1W        W55151  25.609  14.090   6.020 -0.2016  0.3202  0.1376
    1W        W55152  19.257  20.018   8.274 -0.1703  0.1286  0.0804
    1W        W55153  11.501  28.888   9.006 -0.0014 -0.3879 -0.2263
    1W        W55154   0.347   7.106   9.163 -0.0123  0.0715  0.2850
    1W        W55155   1.088  12.984   6.769  0.0690  0.3367 -0.1778
    1W        W55156   9.925  21.698   8.712 -0.2975  0.0669  0.0461
    1W        W55157   7.953  29.460   3.483  0.2565  0.1697 -0.0668
    1W        W55158  13.448  29.316   3.397 -0.2079 -0.3702  0.1564
    1W        W55159   8.306  26.610   0.824 -0.0641  0.2023  0.0939
    1W        W55160  14.510  28.987   2.188  0.3680 -0.1670 -0.0323
    1W        W55161  23.826  28.745   2.231 -0.2063 -0.2334  0.2746
    1W        W55162   7.979   2.003   7.181 -0.1194  0.1899  0.3956
    1W        W55163  11.720  13.576   7.779  0.0643 -0.0624  0.2524
    1W        W55164  19.579   6.152   6.728  0.3784  0.1675 -0.0643
    1W        W55165  18.384   5.465   0.336 -0.2804  0.3305  0.0110
    1W        W55166  21.464  19.367   0.386  0.1605 -0.2879 -0.0142
    1W        W55167   0.091   0.889   3.472  0.0319  0.1718  0.1915
    1W        W55168  24.751   3.676   6.360  0.0482  0.1730 -0.1433
    1W        W55169  20.648  13.613   7.839  0.0079 -0.0213  0.4435
    1W        W55170  27.702  14.371   6.029 -0.0041 -0.0984  0.2090
    1W        W55171  22.493  21.483   1.960  0.3366 -0.0621 -0.0189
    1W        W55172  18.657  26.700   7.984  0.0602 -0.1962 -0.5729
    1W        W55173   4.300  18.504   6.480  0.0821 -0.2462  0.1884
    1W        W55174   4.003   0.604   3.302 -0.4747  0.1223  0.0873
    1W        W55175  24.103  20.462   6.416 -0.0919 -0.2103  0.0198
    1W        W55176  29.743  26.112   7.612 -0.1151  0.0876  0.0267
    1W        W55177   9.345  15.117   2.499 -0.0919  0.3009 -0.1946
    1W        W55178   5.205  29.472   7.736 -0.1035  0.0298  0.0006
    1W        W55179  25.937  18.951   5.889 -0.0047 -0.2266  0.1435
    1W        W55180  25.666   6.118   7.101  0.2472  0.0703 -0.1871
    1W        W55181  25.580  23.505   6.645  0.0018 -0.2785  0.2095
    1W        W55182  21.188  15.695   7.577  0.2252  0.1590  0.6035
    1W        W55183   5.716  12.127   2.668 -0.0595 -0.1020 -0.1130
    1W        W55184  10.361  18.210   0.100  0.1050  0.0500  0.2253
    1W        W55185   8.913  27.405   2.185 -0.0505  0.2487 -0.0533
    1W        W55186  17.499   2.994   0.072 -0.0444  0.3045 -0.1328
    1W        W55187  22.956  25.187   9.350 -0.1923  0.0585  0.1495
    1W        W55188  26.268   0.332   9.065 -0.1777  0.1535 -0.1439
    1W        W55189   1.081  14.511   9.246  0.0588 -0.2444 -0.0232
    1W        W55190  18.922  28.127   1.148 -0.0102 -0.2099 -0.1148
    1W        W55191   6.356  27.216   0.900 -0.1204  0.1628 -0.0041
    1W        W55192   4.767   9.876   7.649  0.3623 -0.0289 -0.0066
    1W        W55193   7.739  24.098   6.500  0.1211 -0.0058 -0.1753
    1W        W55194  16.833  11.302   1.275  0.1047  0.2109 -0.0564
    1W        W55195  28.833  22.870   8.393  0.3155 -0.1615  0.0359
    1W        W55196  23.256  27.477   7.416 -0.1143  0.1667 -0.1192
    1W        W55197  16.602  10.033   8.148  0.2277 -0.0820  0.1936
    1W        W55198  17.997   4.036   1.342  0.1412 -0.1220  0.1868
    1W        W55199   0.884  21.674   0.981 -0.2670  0.1836  0.0986
    1W        W55200  16.431  18.367   7.467  0.1564  0.1962  0.0850
    1W        W55201  20.841  12.354   7.216 -0.0104 -0.0040  0.1079
    1W        W55202  22.518  24.467   1.393  0.3054 -0.0133 -0.1889
    1W        W55203  10.457  15.860   8.969  0.2458 -0.0472 -0.5138
    1W        W55204  15.635  17.014   2.143 -0.1383  0.0293  0.2572
    1W        W55205  23.654  17.062   1.460 -0.0891 -0.0411 -0.1239
    1W        W55206  20.825  26.402   0.187  0.2133  0.0772  0.0750
    1W        W55207   6.175  18.188   7.175 -0.1550  0.1080  0.0886
    1W        W55208  26.373  14.806   1.719 -0.2265  0.0518  0.0376
    1W        W55209   1.468  16.197   0.813 -0.0837 -0.0910  0.0975
    1W        W55210  26.906  10.124   5.844  0.1036 -0.1098 -0.0563
    1W        W55211  26.045   5.350   1.180 -0.0874 -0.3791  0.1845
    1W        W55212  15.712  26.951   6.943  0.1947  0.1850  0.0659
    1W        W55213   4.698  15.579   7.660  0.2210 -0.0727 -0.3001
    1W        W55214  29.624  22.632   1.971 -0.0294 -0.1695 -0.1683
    1W        W55215  19.589  28.509   7.176 -0.1575  0.0574 -0.2863
    1W        W55216   9.174   4.249   1.260  0.0260 -0.3695 -0.0512
    1W        W55217  21.304   1.109   2.401 -0.1249 -0.4295  0.0162
    1W        W55218   9.004   3.361   0.759 -0.0916 -0.3045  0.0063
    1W        W55219  22.924   8.144   6.527  0.1349 -0.2100  0.1062
    1W        W55220  27.277  11.348   8.292  0.0373 -0.1918 -0.0091
    1W        W55221   4.918  20.164   0.425  0.2801 -0.1142 -0.0563
    1W        W55222  15.905   2.091   8.446  0.1693 -0.1768  0.0907
    1W        W55223  27.060  20.586   2.278  0.3649 -0.3143 -0.0142
    1W        W55224  21.240  17.028   1.234 -0.0746  0.2459 -0.0339
    1W        W55225   8.366  14.562   0.094  0.2460 -0.1794  0.1487
    1W        W55226  21.998  18.051   7.717  0.1244  0.0348 -0.2568
    1W        W55227  28.358   6.993   7.793  0.0333  0.2492 -0.3240
    1W        W55228  11.823   9.418   3.003  0.0199 -0.1133  0.1971
    1W        W55229  27.930  14.054   6.311  0.1266  0.0976 -0.0836
    1W        W55230   9.619   0.912   2.360 -0.0257  0.2145 -0.0978
    1W        W55231  23.004   0.165   2.571 -0.0151 -0.1938  0.2214
    1W        W55232  22.295  26.743   3.332 -0.1221  0.0197  0.0783
    1W        W55233   0.226  20.111   1.474  0.2087  0.1115  0.1437
    1W        W55234  28.075  20.525   7.376 -0.1675 -0.3695  0.0341
    1W        W55235  24.502  24.413   1.513 -0.2497 -0.2180  0.0342
    1W        W55236  19.541   8.793   8.875  0.1663  0.0577 -0.0247
    1W        W55237  13.819   5.818   1.631 -0.0977 -0.1234  0.0300
    1W        W55238  29.557   5.363   0.088  0.1270 -0.1386 -0.4833
    1W        W55239  17.871   8.156   0.146  0.1039 -0.0355 -0.3504
    1W        W55240  28.354  17.645   9.374  0.0617 -0.0460  0.0065
    1W        W55241  17.002  13.841   7.689  0.1301  0.3816 -0.0272
    1W        W55242  29.304  11.495   1.157  0.2524 -0.1324  0.2130
    1W        W55243   8.279   0.435   8.048 -0.0872  0.4144 -0.1931
    1W        W55244  15.982  10.112   1.939  0.0113  0.4437 -0.4296
    1W        W55245   5.621  25.013   9.215 -0.0197 -0.0548  0.1190
    1W        W55246  17.052  22.306   9.367  0.1944 -0.1906  0.0930
    1W        W55247   2.001   9.910   6.141  0.0180 -0.0578 -0.4322
    1W        W55248  25.663  21.796   9.202 -0.3267  0.0465  0.1563
    1W        W55249   2.595   7.119   0.952  0.0295 -0.2060 -0.0919
    1W        W55250   7.770   5.523   2.546  0.1194 -0.2455 -0.0295
    1W        W55251   2.440   3.651   1.972 -0.2214  0.2258 -0.3903
    1W        W55252  14.231   0.687   8.198 -0.1704 -0.0483 -0.2623
    1W        W55253  14.218   3.056   3.306 -0.0321 -0.0312  0.0185
    1W        W55254  17.125   6.817   7.556 -0.2517 -0.1059 -0.1821
    1W        W55255  28.723  23.192   6.023  0.6081  0.2212 -0.0401
    1W        W55256  24.789  13.920   0.892 -0.0935  0.0220  0.0862
    1W        W55257  25.567   8.935   7.413  0.2357 -0.0435 -0.1050
    1W        W55258  20.018   8.550   6.677  0.1512 -0.1038 -0.0167
    1W        W55259  14.506  10.943   1.970  0.1593  0.0628  0.0719
    1W        W55260  25.373   4.088   0.249 -0.0680 -0.1453  0.1110
    1W        W55261  26.589   8.811   9.104  0.2414  0.1158 -0.1182
    1W        W55262  24.948  12.403   7.050  0.0210  0.3454 -0.0576
    1W        W55263   3.799  16.475   1.698 -0.3574 -0.1646  0.1585
    1W        W55264  23.069   3.754   0.879 -0.1246  0.0582  0.0904
    1W        W55265  28.546   2.593   8.241 -0.1934  0.0059  0.2073
    1W        W55266   8.514  10.041   2.493 -0.1465 -0.0932 -0.0868
    1W        W55267   5.510  26.146   1.270 -0.2630  0.2455  0.1111
    1W        W55268  15.121   6.050   3.605  0.0264 -0.1613  0.0628
    1W        W55269  14.802   1.901   1.810  0.2882  0.0588 -0.0441
    1W        W55270   3.629  10.069   7.825 -0.0365  0.1169  0.0307
    1W        W55271  12.603   8.890   1.783  0.0651 -0.3733  0.1238
    1W        W55272   1.168   3.595   2.545  0.4300  0.0226 -0.2591
    1W        W55273  13.608   2.925   2.671 -0.1243 -0.0545  0.0045
    1W        W55274  25.354  15.358   8.499 -0.2963  0.1113  0.1237
    1W        W55275  22.349  13.417   0.812  0.0562  0.0818  0.2348
    1W        W55276   1.950  13.936   2.318  0.1401  0.0938 -0.1119
    1W        W55277  14.401  19.705   9.103  0.2620 -0.0484  0.0720
    1W        W55278   4.056  12.848   2.245 -0.0301 -0.4158 -0.3221
    1W        W55279   2.718   7.232   6.814  0.0350  0.1663 -0.1511
    1W        W55280   2.995  22.032   7.201 -0.0707 -0.3261  0.1138
    1W        W55281  16.437  30.122   7.854 -0.1962  0.4079 -0.0121
    1W        W55282  18.403  22.032   8.746 -0.3350 -0.3985 -0.0819
    1W        W55283   9.277  15.224   7.617  0.0186  0.0956 -0.0267
    1W        W55284  20.556   5.918   7.463 -0.1284  0.0089 -0.0644
    1W        W55285   3.597   8.600   0.106  0.0917  0.0142  0.2319
    1W        W55286  16.375   5.712   9.284  0.0047  0.0735 -0.1311
    1W        W55287   6.802  11.486   7.781 -0.1135 -0.1772 -0.0232
    1W        W55288  18.646  17.793   7.592  0.0879 -0.2036  0.1574
    1W        W55289  23.511  24.899   0.125 -0.0004 -0.2485 -0.1561
    1W        W55290   1.782   9.465   1.069  0.2456  0.0194 -0.0702
    1W        W55291  10.592  17.659   8.866  0.2096 -0.1595 -0.0310
    1W        W55292   2.862  12.708   0.922  0.1518  0.0166  0.3081
    1W        W55293  22.523  21.662   1.021 -0.1744  0.2634  0.0415
    1W        W55294   4.050   5.550   7.517  0.2942 -0.2912 -0.4561
    1W        W55295  17.999  20.780   7.670 -0.2717  0.1066 -0.1263
    1W        W55296   9.354  21.957   0.729  0.0703  0.5604  0.0748
    1W        W55297  12.072  11.466   1.534  0.0068 -0.0516 -0.2363
    1W        W55298   4.502  25.134   8.230 -0.2282 -0.0801 -0.1158
    1W        W55299  28.410   9.788   7.671  0.2425  0.0405 -0.0671
    1W        W55300  29.530  15.072   0.313  0.0325 -0.3576  0.2611
    1W        W55301  10.304  26.501   6.389 -0.0612  0.0732  0.2902
    1W        W55302  22.562   7.619   2.744  0.2744  0.3157 -0.0797
    1W        W55303  24.501   9.566   1.295  0.1154 -0.1128 -0.0455
    1W        W55304   5.004  30.097   1.074  0.2412 -0.0689  0.2739
    1W        W55305   1.944  18.310   6.706  0.0575  0.3480 -0.1855
    1W        W55306   0.204   9.614   1.573 -0.2900  0.1987  0.1427
    1W        W55307  27.841  25.701   1.177 -0.0071  0.4262 -0.0734
    1W        W55308   6.838  23.259   1.172 -0.1404  0.4300 -0.1238
    1W        W55309  23.355  29.989   2.424 -0.0676 -0.1106  0.1984
    1W        W55310   5.093   0.950   1.478 -0.0175  0.2657  0.2808
    1W        W55311   0.338   3.888   2.056  0.1973  0.1063 -0.0848
    1W        W55312  20.414  12.302   9.297 -0.2428 -0.1161 -0.1726
    1W        W55313   4.596  22.477   0.805 -0.3619  0.1733 -0.0023
    1W        W55314  12.895  28.229   1.907  0.0971  0.2820 -0.2450
    1W        W55315   2.378   5.745   9.219 -0.0844  0.1525 -0.0489
    1W        W55316  27.105   0.778   8.976 -0.0719 -0.0756 -0.2366
    1W        W55317  21.285  15.942   2.092 -0.1567  0.1636 -0.2062
    1W        W55318   5.472   7.254   8.734 -0.0642  0.1349  0.0399
    1W        W55319  22.004  17.386   0.764  0.0784  0.1048 -0.2411
    1W        W55320  23.485   7.280   0.777 -0.3019 -0.0186  0.1105
    1W        W55321   4.521   5.636   1.922 -0.0244  0.0575  0.0002
    1W        W55322  15.396  15.271   7.663 -0.2946 -0.0032 -0.2431
    1W        W55323   3.450  15.431   8.814  0.3241  0.2106 -0.1025
    1W        W55324   9.866   2.423   2.476  0.0627  0.0895 -0.0970
    1W        W55325   2.771  25.838   6.400 -0.1722 -0.0341  0.1722
    1W        W55326  25.775  17.811   7.954  0.2557 -0.2242  0.0080
    1W        W55327  29.146  30.026   1.336  0.3161  0.0855  0.0289
    1W        W55328   0.094  10.998   1.418 -0.1707  0.1180 -0.0563
    1W        W55329   3.849  20.744   8.902  0.1021 -0.2398 -0.1209
    1W        W55330  16.951  12.890   0.668  0.1324 -0.2266 -0.2281
    1W        W55331   5.348  16.878   0.176  0.0562  0.0187  0.1619
    1W        W55332  23.179  10.655   9.268 -0.3795  0.0917  0.2014
    1W        W55333  20.637  19.462   6.614  0.2017  0.0712 -0.0550
    1W        W55334  28.919  20.651   0.613  0.3424  0.2015 -0.0952
    1W        W55335  24.308  22.942   9.074 -0.0496 -0.0503 -0.1335
    1W        W55336  20.403  17.191   6.657  0.0116 -0.3816 -0.3792
    1W        W55337  24.303  25.584   0.469 -0.2809  0.0296  0.0948
    1W        W55338  24.330  28.045   1.990 -0.2160 -0.0437 -0.1782
    1W        W55339  25.937  14.524   6.409  0.1481 -0.0300 -0.2373
    1W        W55340  25.469  27.998   1.437 -0.3220  0.0210 -0.1550
    1W        W55341   1.357   8.859   0.516 -0.1332  0.2288  0.2617
    1W        W55342  20.798  21.692   1.749 -0.3269 -0.1548 -0.1765
    1W        W55343  19.422   5.835   1.423  0.2189  0.1423 -0.0792
    1W        W55344   3.609  28.185   7.165 -0.1344  0.1580 -0.0523
    1W        W55345   9.480  27.725   6.862 -0.0365 -0.1146 -0.0204
    1W        W55346   1.741  26.585   1.476  0.1908  0.0202  0.4338
    1W        W55347  15.395  20.247   8.180  0.1615  0.1321 -0.1879
    1W        W55348   8.691   3.036   2.755 -0.0413 -0.0903  0.0975
    1W        W55349  20.146  21.409   0.838 -0.0848  0.2384  0.0778
    1W        W55350   7.468  17.182   2.827 -0.1580 -0.1087 -0.1652
    1W        W55351   5.394  11.238   8.135 -0.2392  0.0928 -0.1500
    1W        W55352  22.070  11.157   9.199 -0.0740 -0.0667  0.1287
    1W        W55353  20.920  23.986   0.114 -0.1113 -0.3666  0.1614
    1W        W55354   1.967  12.216   0.942  0.1728  0.1958 -0.3184
    1W        W55355  18.218  13.582   1.763  0.0518 -0.1433  0.0179
    1W        W55356  18.356  14.728   6.988 -0.2336  0.0512  0.1119
    1W        W55357  22.677  10.855   1.819  0.1894 -0.0118 -0.0096
    1W        W55358   2.471   2.866   0.824  0.0490  0.0128 -0.0359
    1W        W55359   2.618  10.777   0.317 -0.1958  0.1448 -0.3421
    1W        W55360  23.685   5.829   7.734  0.1054  0.5109 -0.0578
    1W        W55361  13.842   2.037   3.485  0.0656  0.1650  0.0296
    1W        W55362   4.696  16.133   7.701  0.2708 -0.2445 -0.0913
    1W        W55363   9.311  21.662   0.257 -0.2732  0.0011  0.2839
    1W        W55364  29.924  25.359   0.644 -0.1899  0.1150  0.0635
    1W        W55365   4.616  26.534   0.447  0.5786 -0.2355  0.2149
    1W        W55366  24.332   4.914   6.917 -0.0007 -0.0095 -0.0497
    1W        W55367   2.729  24.660   7.033  0.1236  0.1001 -0.0222
    1W        W55368  22.878   2.192   0.565  0.1391 -0.2353  0.1715
    1W        W55369  20.614   2.573   8.592 -0.0838  0.0237 -0.1918
    1W        W55370  23.944  20.900   8.653 -0.0147 -0.0604 -0.1732
    1W        W55371   8.578  11.154   1.422  0.3529 -0.2096 -0.5454
    1W        W55372  28.068  27.204   1.982 -0.0118  0.0485 -0.2325
    1W        W55373  11.297   1.073   0.819  0.1746  0.0498 -0.1209
    1W        W55374   9.679  15.270   0.366 -0.1711  0.2030 -0.3106
    1W        W55375  26.710   0.644   2.296 -0.4034 -0.3102 -0.0102
    1W        W55376  21.830   7.126   7.434 -0.3397 -0.3158  0.2759
    1W        W55377  21.843   9.691   8.524 -0.0768 -0.1144  0.0536
    1W        W55378  14.387  26.818   2.132 -0.0965  0.2390 -0.1422
    1W        W55379   8.801  17.556   1.446 -0.2350 -0.0708  0.3535
    1W        W55380   9.866  26.346   1.458 -0.0475  0.0676 -0.0568
    1W        W55381   2.083   5.312   2.206  0.2035  0.3231 -0.0637
    1W        W55382  18.837   5.015   8.266 -0.3623  0.2163  0.0636
    1W        W55383  10.029  17.301   0.590 -0.0867 -0.2057 -0.3491
    1W        W55384  11.573  20.052   7.930  0.2792 -0.0903 -0.1597
    1W        W55385  22.361  23.075   8.600 -0.0573  0.3715 -0.2779
    1W        W55386  27.319  15.908   6.085  0.3652  0.2093  0.0794
    1W        W55387  24.490  18.999   0.768 -0.0538  0.0123 -0.0938
    1W        W55388   5.256  28.395   8.869 -0.1634  0.1359  0.0345
    1W        W55389  26.275   5.463   0.641 -0.0488  0.2725 -0.1912
    1W        W55390   7.166  16.882   8.893  0.0931  0.3520 -0.0105
    1W        W55391  17.254  23.757   2.425  0.2006 -0.0799 -0.0125
    1W        W55392   0.190   1.412   7.096 -0.0789 -0.0133 -0.0001
    1W        W55393  17.382  25.075   2.328 -0.3786  0.1798 -0.0403
    1W        W55394  21.229  15.958   7.075  0.0103  0.0569  0.1120
    1W        W55395  24.825   6.862   6.185  0.0461  0.0094  0.1579
    1W        W55396  16.491   1.723   1.187  0.1799 -0.2013 -0.4463
    1W        W55397  12.914   7.259   2.758 -0.2327  0.3458 -0.1047
    1W        W55398  20.691   9.306   8.054 -0.1000 -0.2337  0.2856
    1W        W55399  25.911   1.922   7.390 -0.0729  0.2195  0.0331
    1W        W55400  24.943  26.833   9.395 -0.1682  0.0320  0.1309
    1W        W55401   8.345   0.839   9.066 -0.0865  0.1596  0.0993
    1W        W55402   1.520  19.832   8.153 -0.1926  0.1047  0.1350
    1W        W55403   2.176   3.319   8.128  0.1224  0.1807  0.3738
    1W        W55404   5.479   9.599   8.347 -0.3345 -0.1009 -0.1179
    1W        W55405   5.981  22.450   7.015 -0.2218  0.0311  0.1599
    1W        W55406  27.687  13.683   6.596 -0.1220  0.2056 -0.0256
    1W        W55407  23.539  17.179   8.265  0.2481 -0.1214  0.0104
    1W        W55408  11.790  29.227   9.334  0.1287  0.1039 -0.1580
    1W        W55409   4.335  15.144   8.246  0.0180 -0.0422  0.0559
    1W        W55410  19.594  16.570   0.455 -0.3055 -0.0837 -0.0309
    1W        W55411  20.668  24.804   8.179 -0.0674  0.1598 -0.3261
    1W        W55412   3.318  11.427   7.170 -0.0417 -0.1832 -0.0754
    1W        W55413  11.437  20.897   2.233 -0.1290 -0.2048  0.4748
    1W        W55414  16.394   2.033   9.336 -0.2583 -0.1432 -0.0549
    1W        W55415   2.857   7.791   7.527  0.4101  0.3630 -0.1908
    1W        W55416   7.146   3.183   7.008 -0.1248  0.0662 -0.0872
    1W        W55417  14.104  28.057   0.944  0.2611  0.1840  0.0822
    1W        W55418  24.462   8.984   2.159  0.0519  0.0314 -0.4816
    1W        W55419   8.882  12.005   0.605 -0.1701  0.2392  0.0756
    1W        W55420   6.541   6.490   2.645  0.1394  0.1110 -0.0365
    1W        W55421   9.941  15.306   1.863 -0.2929 -0.2289 -0.1228
    1W        W55422  12.372   9.487   7.326  0.1125  0.2061 -0.1565
    1W        W55423  12.511   3.150   7.996  0.0734 -0.0632  0.1213
    1W        W55424  22.184   1.535   8.306  0.2502 -0.1203 -0.1727
    1W        W55425   6.691   2.478   7.366  0.2024 -0.2167  0.0030
    1W        W55426   8.927  13.602   8.808 -0.0704  0.1548  0.2100
    1W        W55427   9.004  17.631   8.322 -0.2945  0.2479  0.0184
    1W        W55428  24.433   3.474   8.530 -0.1598  0.5222  0.1840
    1W        W55429  12.977  16.896   1.083 -0.2285 -0.0806 -0.0562
    1W        W55430  14.804  27.260   0.157 -0.0364  0.1195 -0.0962
    1W        W55431  13.974  26.470   2.768 -0.0293  0.0304  0.2941
    1W        W55432  16.575  28.663   3.221  0.1309 -0.0829 -0.1025
    1W        W55433  25.589  14.384   7.250  0.0462  0.1872 -0.2858
    1W        W55434  14.927  25.818   3.221 -0.3025 -0.0687 -0.5932
    1W        W55435  29.104  11.947   0.868 -0.0880  0.1257 -0.0861
    1W        W55436  20.684  18.955   0.441  0.0594  0.1026  0.0030
    1W        W55437  27.257  24.672   6.529 -0.1238  0.0112  0.2615
    1W        W55438  28.361  20.147   2.240  0.2573 -0.0504  0.2825
    1W        W55439   6.443  14.426   2.918  0.2240  0.2398  0.1845
    1W        W55440  23.301  18.959   6.008 -0.0890  0.0356 -0.3422
    1W        W55441  23.694  19.687   1.374 -0.1374 -0.1953  0.1036
    1W        W55442  16.289  25.764   9.211  0.1496 -0.1929  0.0417
    1W        W55443  22.431  27.226   1.785 -0.0449 -0.0030 -0.5475
    1W        W55444  17.853  28.977   9.278 -0.3299 -0.0257  0.0107
    1W        W55445  15.928   9.402   9.062  0.1370 -0.0826  0.0096
    1W        W55446  23.578   5.389   0.340  0.2645 -0.0982  0.1996
    1W        W55447  11.871  22.785   7.997 -0.1842 -0.0301 -0.0883
    1W        W55448  12.184  15.944   0.014 -0.1151  0.1088  0.5094
    1W        W55449   3.557   9.299   9.112  0.1226 -0.0192 -0.0006
    1W        W55450   7.232  20.763   1.360  0.2456  0.0174 -0.0128
    1W        W55451  10.829  22.870   1.648 -0.0323 -0.1558  0.4812
    1W        W55452  19.423  12.186   7.310  0.1153 -0.0538 -0.0934
    1W        W55453  18.065   8.289   8.926  0.1635 -0.0076 -0.7434
    1W        W55454  25.678  29.588   2.080 -0.1783  0.0317  0.0460
    1W        W55455   9.627  21.746   6.209  0.1539 -0.1382 -0.1237
    1W        W55456   0.186  25.375   2.193  0.1247 -0.1096  0.1387
    1W        W55457  12.208   5.971   7.822  0.2785 -0.0966 -0.2658
    1W        W55458  20.521  11.290   0.534  0.0619  0.1381 -0.1118
    1W        W55459  26.907  26.541   8.150  0.0393  0.1816  0.0601
    1W        W55460   1.776  21.194   5.307 -0.0235 -0.0770 -0.0871
    1W        W55461  22.367  20.960   1.992  0.0663 -0.6289 -0.2248
    1W        W55462  16.073  26.107   7.600 -0.5744  0.1035  0.0487
    1W        W55463  11.761  20.704   7.258 -0.3557  0.0677 -0.0948
    1W        W55464  22.531  10.011   7.958  0.0766 -0.1030 -0.1829
    1W        W55465  21.370  25.042   1.977 -0.1253  0.0684 -0.1290
    1W        W55466  20.850  29.472   2.310  0.0785 -0.1969 -0.0290
    1W        W55467  29.169  22.761   1.811  0.1931  0.0237 -0.0971
    1W        W55468  18.637  20.911   2.488 -0.3106  0.1750 -0.1387
    1W        W55469   5.892  10.751   2.236  0.3420  0.3319 -0.1237
    1W        W55470   3.531  19.281   6.201 -0.0212  0.0652  0.1487
    1W        W55471   0.103  29.349   3.384 -0.1874  0.2624 -0.1242
    1W        W55472  29.606   4.217   6.883  0.1606 -0.2173 -0.0077
    1W        W55473  11.018  16.809   1.755 -0.2952  0.0692 -0.0699
    1W        W55474  10.589  20.183   7.614 -0.1009  0.0207 -0.1526
    1W        W55475  26.366  28.596   0.915  0.1490  0.0720  0.0231
    1W        W55476  21.367  21.925   8.929 -0.1056 -0.2062 -0.0029
    1W        W55477   3.044   0.298   2.478  0.0951 -0.1135  0.1379
    1W        W55478  24.058  17.574   7.625 -0.1046  0.0220  0.2387
    1W        W55479  17.805  27.967   1.862 -0.0924 -0.0866  0.1262
    1W        W55480   4.121  22.731   6.363 -0.0082 -0.2505  0.2265
    1W        W55481   7.750   0.735   0.763  0.1861 -0.1440  0.0754
    1W        W55482  27.868  23.068   2.354  0.1721  0.1228  0.1747
    1W        W55483   6.062   8.826   3.797 -0.1752 -0.0424  0.2125
    1W        W55484  27.106   8.094   6.544  0.3175 -0.1624 -0.0568
    1W        W55485  27.760   4.478   9.258 -0.0816  0.0955 -0.0257
    1W        W55486  15.265  22.376   7.096 -0.1346  0.0661 -0.1239
    1W        W55487   9.968   0.382   1.027 -0.0827  0.0515  0.0152
    1W        W55488   9.451  23.251   1.698  0.0205  0.5008  0.0866
    1W        W55489  21.420  14.002   1.791 -0.2084  0.3766  0.0563
    1W        W55490   5.434  17.771   0.674 -0.0324 -0.2140  0.1688
    1W        W55491   3.266   9.554   8.824 -0.0279 -0.6119  0.4610
    1W        W55492   8.559  11.339   8.381 -0.2343 -0.2973  0.0102
    1W        W55493   6.752  10.384   7.518  0.0033  0.2204  0.0869
    1W        W55494  25.878  18.250   1.770 -0.0700  0.0930 -0.3678
    1W        W55495  26.969  19.560   1.180  0.0010 -0.0618 -0.0490
    1W        W55496  17.396  26.419   7.967 -0.2316 -0.0842 -0.0216
    1W        W55497  29.631  22.464   5.644  0.0775  0.3226  0.0150
    1W        W55498  11.265   3.461   3.432  0.0661 -0.1376  0.2752
    1W        W55499   1.585   0.499   7.596  0.0730 -0.1333  0.1412
    1W        W55500   3.308   5.194   3.044  0.1218 -0.1448  0.3609
    1W        W55501   6.343   9.798   3.500 -0.0263  0.1199 -0.0727
    1W        W55502  12.982   7.353   0.479  0.5177 -0.3066  0.0022
    1W        W55503  23.611   7.909   8.691  0.2226  0.1304 -0.2023
    1W        W55504  24.102  20.872   7.792  0.2156  0.1244 -0.2635
    1W        W55505   4.306   9.673   8.650  0.3122 -0.1236 -0.0831
    1W        W55506   1.409   1.259   7.970 -0.1367 -0.2728  0.0367
    1W        W55507  27.838   1.090   7.914  0.0139  0.1918  0.0568
    1W        W55508  18.512  13.985   8.576 -0.3236  0.0760  0.2301
    1W        W55509  20.598  11.851   9.248  0.0306  0.2582  0.1194
    1W        W55510  12.824  13.419   1.298  0.0125 -0.1458 -0.1934
    1W        W55511  13.069   3.889   9.193  0.1569  0.3463  0.2688
    1W        W55512  16.071  26.789   2.185  0.1698  0.2754  0.0258
    1W        W55513  21.633   2.494   9.053 -0.1442 -0.0507 -0.1418
    1W        W55514   9.526  24.584   1.727  0.0533 -0.4802  0.2374
    1W        W55515  16.187  15.759   6.509  0.2057 -0.0351  0.1093
    1W        W55516   5.767  26.587   8.983 -0.2410  0.1063 -0.1464
    1W        W55517  25.964  26.787   0.556  0.1062 -0.0818  0.0122
    1W        W55518  16.709  26.959   8.849 -0.0304  0.1175 -0.1792
    1W        W55519  20.641   7.743   9.276 -0.0313  0.0348 -0.1872
    1W        W55520   4.958   7.409   7.896  0.2844 -0.0682 -0.0513
    1W        W55521  12.561  26.630   7.743 -0.0153  0.1431 -0.1372
    1W        W55522  10.959  18.406   7.393  0.0265  0.1133  0.1104
    1W        W55523   9.795  22.179   1.760  0.1048 -0.0379 -0.2250
    1W        W55524  19.925   6.615   1.312  0.0778  0.2234 -0.3298
    1W        W55525   4.998  22.879   8.058 -0.1649 -0.0691 -0.0849
    1W        W55526  18.396  25.378   2.506  0.1687 -0.1460 -0.2607
    1W        W55527   6.913  23.340   0.597  0.3673 -0.2306 -0.2554
    1W        W55528   8.058  11.325   2.664 -0.0314  0.0145 -0.0821
    1W        W55529  17.834  16.001   0.489 -0.1383  0.3102  0.1556
    1W        W55530   5.435  28.660   6.881  0.1644  0.0942 -0.0177
    1W        W55531  21.534  18.705   7.138 -0.0670  0.2630  0.2127
    1W        W55532  22.205  10.249   1.317  0.0365  0.1213  0.1850
    1W        W55533  27.798  27.547   7.261 -0.3003  0.2192  0.2738
    1W        W55534  23.218  13.891   6.758 -0.0707  0.0308 -0.0864
    1W        W55535   4.789  27.898   2.011  0.1544  0.0402 -0.0880
    1W        W55536  27.037  29.080   7.048  0.1895 -0.1640  0.1596
    1W        W55537  14.377  29.550   9.306 -0.0424 -0.0832 -0.0378
    1W        W55538  20.335  25.286   1.574 -0.0395  0.1619  0.0341
    1W        W55539   7.421   3.107   1.278 -0.0454 -0.2146 -0.1232
    1W        W55540  14.871  29.590   0.031  0.0172 -0.0253 -0.1357
    1W        W55541   7.519  14.649   0.519 -0.0513 -0.0390  0.0976
    1W        W55542  19.057  16.540   0.950  0.2694  0.0131  0.0142
    1W        W55543  29.649   8.598   1.242  0.0170  0.0313  0.0581
    1W        W55544   2.907  12.621   1.650 -0.0261  0.1819 -0.1923
    1W        W55545  22.246  25.261   3.052 -0.0371 -0.0948  0.3167
    1W        W55546  19.338  20.520   8.501 -0.1046  0.0466  0.2306
    1W        W55547   8.040   8.033   8.566  0.1277 -0.2346  0.2973
    1W        W55548   9.285   1.076   0.547  0.0259 -0.0497 -0.4442
    1W        W55549  26.843  27.703   8.297 -0.2317  0.0365 -0.1078
    1W        W55550   4.829   4.029   8.708  0.2026 -0.0296  0.0384
    1W        W55551  12.596  25.085   8.908 -0.1149 -0.0270  0.1358
    1W        W55552  16.591  11.297   8.297  0.2420 -0.3435  0.0004
    1W        W55553   6.881   7.347   2.900 -0.1796 -0.1201  0.1116
    1W        W55554  25.799   5.984   2.580  0.0271  0.0207  0.1016
    1W        W55555   6.295  16.870   2.284 -0.0992  0.0055  0.0665
    1W        W55556  14.340  23.462   2.763  0.0454 -0.0041  0.0306
    1W        W55557  13.235   0.782   3.375 -0.1638 -0.3069  0.1313
    1W        W55558   5.265  16.315   1.170 -0.2675 -0.2230 -0.2904
    1W        W55559   8.426   6.148   0.728  0.1541 -0.0633 -0.0413
    1W        W55560  25.890  14.417   4.981  0.1761  0.2939 -0.3625
    1W        W55561   9.308  22.420   0.045 -0.0248 -0.0379 -0.2484
    1W        W55562   7.510   9.525   8.056 -0.1183  0.0776 -0.0926
    1W        W55563  14.377   2.337   2.828 -0.0307 -0.2556 -0.0407
    1W        W55564   6.871  29.909   7.024  0.1197  0.2522 -0.2692
    1W        W55565  14.034   9.480   8.963  0.2077 -0.0039  0.0821
    1W        W55566   1.630   6.456   6.585 -0.3549 -0.0158  0.0270
    1W        W55567   8.127   8.817   0.795 -0.0629  0.0255 -0.0848
    1W        W55568   7.753   8.433   2.092 -0.0032 -0.1646  0.0228
    1W        W55569  23.461  15.968   8.462  0.0681  0.1989 -0.2351
    1W        W55570   9.627   8.089   3.039 -0.0030  0.1654  0.0172
    1W        W55571   9.466   8.366   2.296 -0.1803  0.3920 -0.0368
    1W        W55572  13.009  14.603   0.599  0.0635  0.1719  0.0914
    1W        W55573  15.469  18.990   8.772  0.1672 -0.1862 -0.1842
    1W        W55574   7.490  21.814   2.198  0.2634  0.0557  0.1253
    1W        W55575  24.946  10.369   6.440 -0.0048 -0.3338  0.1370
    1W        W55576  14.758  13.083   0.356  0.0949  0.1395  0.1828
    1W        W55577  24.944  24.108   6.500  0.0335  0.0289 -0.2836
    1W        W55578  20.921   5.401   7.895 -0.0788 -0.2306  0.1428
    1W        W55579   6.748   4.439   2.703  0.0579  0.0215 -0.0785
    1W        W55580   8.432   4.047   7.678  0.1481  0.1439 -0.2096
    1W        W55581  13.065  23.807   6.763  0.0780 -0.1411  0.1591
    1W        W55582  18.482  28.845   1.060 -0.1349  0.0669  0.1634
    1W        W55583  29.324  22.011   7.686 -0.0374  0.3107  0.0681
    1W        W55584  16.379  17.878   7.579  0.1476  0.1473 -0.2440
    1W        W55585   9.220  23.951   9.276  0.0988  0.1370  0.1571
    1W        W55586  16.664  15.665   0.870  0.1869 -0.1904  0.0173
    1W        W55587   9.503  20.555   0.570  0.1977 -0.0413  0.2560
    1W        W55588   4.090  18.096   7.367  0.0051  0.0780  0.0373
    1W        W55589   1.161  22.499   8.180  0.1295 -0.2727  0.0796
    1W        W55590   7.518  11.256   0.601 -0.0061  0.3174 -0.3389
    1W        W55591   9.377  25.216   8.236  0.1279  0.0080  0.4504
    1W        W55592  28.804  24.247   8.706  0.1438 -0.3349  0.1955
    1W        W55593  15.829   3.106   1.028 -0.1158  0.1674  0.1887
    1W        W55594   6.511  13.585   0.373  0.0377 -0.0094 -0.0762
    1W        W55595  14.204   3.106   1.698 -0.0953  0.0154 -0.1645
    1W        W55596   1.368  17.064   7.959  0.0564  0.1333 -0.3328
    1W        W55597   6.807   2.644   3.822  0.2430 -0.0060  0.2881
    1W        W55598  19.385  23.504   1.918 -0.0859 -0.0989  0.0040
    1W        W55599   7.029  21.073   7.335  0.2386 -0.1251  0.0739
    1W        W55600  17.083  12.224   1.406  0.2161  0.1886 -0.1484
    1W        W55601   8.676   5.315   2.191 -0.3834 -0.2736 -0.1381
    1W        W55602   9.939  19.062   1.632 -0.0238 -0.0062  0.0724
    1W        W55603  14.381   5.380   0.933  0.3519 -0.2184  0.0423
    1W        W55604  26.126  12.668   7.977 -0.4946  0.2537 -0.1740
    1W        W55605   2.285   6.857   7.564 -0.2089  0.1359 -0.3458
    1W        W55606   3.193  12.467   9.044 -0.0587  0.1305  0.2080
    1W        W55607  13.385   4.827   8.381 -0.2112 -0.0132  0.1202
    1W        W55608   5.820   8.334   0.297 -0.1155  0.2526 -0.2557
    1W        W55609   4.590  17.531   1.956  0.1831  0.1596  0.1200
    1W        W55610   5.044  24.587   7.623 -0.2529 -0.0585  0.1438
    1W        W55611   2.723  14.727   6.750  0.0520  0.3223  0.2778
    1W        W55612  16.736  24.716   1.504 -0.2082  0.1875 -0.1415
    1W        W55613  27.082  14.286   6.190  0.0446  0.1619  0.0465
    1W        W55614  24.572   4.691   8.128 -0.1493 -0.3321 -0.1072
    1W        W55615   7.086  26.881   8.625  0.0206  0.2248  0.0191
    1W        W55616  12.651   2.845   8.369  0.4474  0.0732  0.0977
    1W        W55617   7.866  22.993   6.939  0.0088  0.0834  0.1138
    1W        W55618   9.257  11.161   9.039 -0.1045 -0.4942 -0.1604
    1W        W55619  18.500   6.026   7.533  0.2175  0.1654  0.0713
    1W        W55620  20.606  17.674   7.985 -0.0538  0.1129  0.0593
    1W        W55621  26.322  22.846   0.856 -0.0915 -0.1938  0.2262
    1W        W55622  21.711  25.907   9.128 -0.3139 -0.1288 -0.0220
    1W        W55623   5.111   3.855   1.712 -0.1729  0.1507 -0.4258
    1W        W55624  13.547   2.474   0.005  0.0939 -0.1188  0.2662
    1W        W55625   0.972  10.639   1.136 -0.2414 -0.1741 -0.3763
    1W        W55626  21.620  21.229   7.095  0.1494 -0.3345  0.1697
    1W        W55627   8.906  10.987   8.730  0.1470 -0.0777 -0.2624
    1W        W55628  16.711  25.187   8.431 -0.1554  0.3684  0.1510
    1W        W55629   7.687  21.322   5.934  0.0130  0.0270 -0.1421
    1W        W55630  29.776   5.136   7.055  0.0248  0.2594  0.4360
    1W        W55631   7.749  15.076   9.160  0.0344 -0.1683 -0.0474
    1W        W55632   5.173   8.720   9.219  0.0759  0.1351  0.1707
    1W        W55633   9.913  21.900   5.807 -0.1274 -0.0871  0.0518
    1W        W55634   7.978  17.339   7.923  0.1565 -0.0672  0.1586
    1W        W55635  17.872   3.083   2.853  0.0278  0.0286 -0.2986
    1W        W55636  21.467  13.606   8.504 -0.2463 -0.2788  0.4424
    1W        W55637   8.100   1.267   2.046 -0.3108  0.4495  0.2551
    1W        W55638  18.599   6.893   1.850 -0.2197  0.4170 -0.2817
    1W        W55639  22.948   6.823   3.024  0.0815 -0.1594  0.0554
    1W        W55640  21.069  10.892   9.153  0.3025  0.2834  0.1348
    1W        W55641  27.150  26.361   6.841  0.0602 -0.1903  0.1669
    1W        W55642   6.198  20.548   6.207 -0.2763  0.1295 -0.0113
    1W        W55643  19.585   3.442   7.793  0.1515 -0.1297  0.0262
    1W        W55644   7.069  25.100   2.040  0.1117  0.1312  0.0094
    1W        W55645  13.493  24.481   8.193 -0.1100 -0.0746 -0.0891
    1W        W55646  27.344   4.343   7.117  0.0727  0.2885  0.0991
    1W        W55647   1.002   7.352   7.455  0.2620  0.0989  0.0112
    1W        W55648  16.000  23.009   0.565  0.0912 -0.2267  0.0475
    1W        W55649   1.336   6.699   1.488  0.2529  0.3885 -0.0044
    1W        W55650   2.651  10.469   8.429 -0.0413  0.3800  0.2419
    1W        W55651  17.915  18.344   1.723 -0.2958  0.1381 -0.1218
    1W        W55652  27.247  28.063   8.396  0.1196  0.1131  0.2852
    1W        W55653  16.238   4.190   2.333  0.1278 -0.0956 -0.2789
    1W        W55654   4.242  11.302   2.151 -0.4585  0.1556 -0.0900
    1W        W55655  14.512  26.832   3.235  0.1180  0.1266 -0.3235
    1W        W55656   5.253  25.195   1.466  0.1457 -0.0080  0.0518
    1W        W55657   6.149   9.738   8.676 -0.2757 -0.1045 -0.1629
    1W        W55658  14.295  11.616   7.808 -0.0823  0.1233 -0.2097
    1W        W55659   0.698  24.345   6.509 -0.0320 -0.2157 -0.1560
    1W        W55660  26.688   0.155   8.955 -0.0070 -0.0324 -0.1671
    1W        W55661   9.978   3.394   7.890 -0.2682  0.0564 -0.1143
    1W        W55662  23.293   5.833   0.561 -0.0583 -0.2841 -0.2815
    1W        W55663  16.042  23.906   0.160 -0.1652  0.0445  0.0593
    1W        W55664  21.655  11.979   7.612  0.0278 -0.0108  0.1956
    1W        W55665  17.379  15.600   1.627  0.1924  0.0283  0.1283
    1W        W55666  19.480   8.413   2.463 -0.1222  0.1030  0.0890
    1W        W55667  20.781   8.336   8.614  0.0558  0.0867 -0.1756
    1W        W55668   8.989   7.310   0.103  0.2674 -0.3192 -0.0358
    1W        W55669   4.555  22.873   6.661 -0.0464  0.2035  0.3035
    1W        W55670   6.986  25.039   6.722  0.0827 -0.4928  0.4138
    1W        W55671  25.915   7.808   2.564 -0.3326 -0.1488  0.2107
    1W        W55672  12.705  17.871   2.384  0.2000  0.1848 -0.1676
    1W        W55673  22.111  10.969   0.824 -0.2205 -0.2688  0.2629
    1W        W55674  17.091  18.277   1.014  0.0316 -0.1081 -0.0291
    1W        W55675   2.781  22.424   6.436 -0.2138  0.1036  0.2342
    1W        W55676  29.497   8.177   1.567  0.0671  0.0608 -0.0377
    1W        W55677   9.336   5.121   0.316 -0.0889  0.0143 -0.2505
    1W        W55678  20.730  26.232   8.864 -0.1938  0.0986 -0.1434
    1W        W55679  28.952   0.030   9.015 -0.3257  0.0793  0.2193
    1W        W55680   9.179  29.583   0.442  0.1051  0.0563 -0.1727
    1W        W55681  15.513  10.142   1.112  0.0171 -0.0965  0.2636
    1W        W55682   3.777   7.318   8.960  0.0148 -0.1398 -0.4037
    1W        W55683  27.335  10.054   8.358  0.2998  0.1733 -0.0476
    1W        W55684   3.635  12.831   6.323  0.3657 -0.0462 -0.0067
    1W        W55685  23.416  22.100   1.075  0.0893 -0.0436 -0.6543
    1W        W55686  19.017   6.726   1.611 -0.0508 -0.2085  0.2120
    1W        W55687  15.152   1.898   0.240 -0.3768 -0.0226 -0.0398
    1W        W55688  12.017   8.056   9.307 -0.1711 -0.1795  0.0258
    1W        W55689  15.591  20.577   7.901  0.2649 -0.1866  0.2440
    1W        W55690  17.165  25.628   7.192 -0.1979 -0.1979  0.0184
    1W        W55691  21.567  28.114   2.382 -0.0330  0.0459 -0.3647
    1W        W55692  27.883  12.462   8.012  0.0503  0.2306 -0.1924
    1W        W55693  28.370  14.881   7.408  0.1472 -0.2075  0.0783
    1W        W55694   5.738   0.237   2.536  0.1284  0.0050  0.0075
    1W        W55695  20.811  23.319   7.544  0.1498  0.0507  0.0975
    1W        W55696   7.717  16.856   1.388  0.0720  0.0762  0.1534
    1W        W55697  28.981   4.586   9.247  0.1254 -0.0212 -0.4728
    1W        W55698  15.093   4.631   2.336  0.3163 -0.2283 -0.1190
    1W        W55699  28.865  26.558   3.069  0.0119 -0.1548 -0.1867
    1W        W55700  16.265  17.176   0.303 -0.1542  0.0181  0.0141
    1W        W55701   3.397  13.533   1.379 -0.1244  0.2965 -0.0920
    1W        W55702   2.843   3.731   1.120 -0.0104  0.1944  0.0322
    1W        W55703   9.311  12.807   1.174  0.2278 -0.2222  0.4260
    1W        W55704  17.838   4.683   2.807  0.1247 -0.1489 -0.1103
    1W        W55705   8.150  23.865   6.714 -0.2855  0.1523 -0.4827
    1W        W55706  10.306  12.709   1.908  0.0324 -0.0697  0.0461
    1W        W55707   1.110  20.811   6.172 -0.3147 -0.4580  0.0084
    1W        W55708  16.559   2.671   2.149  0.3195 -0.3039  0.1025
    1W        W55709   9.449   1.560   1.870  0.2382 -0.1753  0.0597
    1W        W55710   0.392   3.128   8.402 -0.3152 -0.0369  0.1286
    1W        W55711  14.316  20.742   7.198  0.1754 -0.2816 -0.1000
    1W        W55712   6.063  11.461   2.810 -0.0831 -0.2519 -0.0113
    1W        W55713   9.520   0.421   3.563  0.1414  0.0134 -0.1903
    1W        W55714  19.458  10.428   2.299 -0.2985  0.0370 -0.0077
    1W        W55715   9.465  10.399   1.078  0.1204  0.0907  0.1279
    1W        W55716  27.300   7.608   1.906  0.3265  0.3240 -0.0986
    1W        W55717  22.232  24.267   9.284 -0.4352 -0.0518  0.0631
    1W        W55718  14.864   0.338   3.456 -0.0307 -0.0831  0.0740
    1W        W55719  21.962   8.240   1.707  0.0957  0.2199  0.0171
    1W        W55720   1.178  28.605   2.819 -0.0387  0.0073 -0.0601
    1W        W55721  21.173  18.284   0.959 -0.2801 -0.2212  0.0770
    1W        W55722   3.271  28.939   9.132  0.1808  0.1492  0.0328
    1W        W55723   7.449   4.813   3.092  0.1704  0.1529 -0.1263
    1W        W55724  15.229  22.472   8.954 -0.0172  0.2362 -0.1680
    1W        W55725   9.715  22.723   6.255 -0.0489 -0.1316  0.1017
    1W        W55726   2.987  17.409   7.004 -0.0721 -0.2722  0.0555
    1W        W55727  10.412  21.591   7.529  0.2218  0.0772 -0.2854
    1W        W55728   2.922  11.132   6.772 -0.2791 -0.1092 -0.1021
    1W        W55729  11.428  27.092   0.787 -0.1603 -0.0873  0.5783
    1W        W55730  17.185  11.024   9.103 -0.0952  0.1224 -0.0475
    1W        W55731  11.498  14.460   0.639  0.3557  0.0261  0.1433
    1W        W55732   5.230  23.787   0.249 -0.2107  0.2298 -0.4581
    1W        W55733  19.217   6.334   7.157 -0.0566 -0.0561 -0.1718
    1W        W55734   0.414   8.011   8.386  0.0005  0.0494  0.0869
    1W        W55735   7.680   8.272   9.345  0.1639  0.0610 -0.0067
    1W        W55736  23.970   6.067   2.828 -0.0174 -0.0321  0.3295
    1W        W55737  25.506   8.403   7.346  0.1220 -0.2836  0.0840
    1W        W55738   4.857  17.398   6.377 -0.4811 -0.0159  0.3094
    1W        W55739  15.509  12.874   7.165 -0.2616 -0.0072  0.1850
    1W        W55740  21.491   9.122   7.804  0.0748  0.0228 -0.0570
    1W        W55741  16.774   2.478   1.178  0.0734  0.0391  0.0790
    1W        W55742  19.114   5.794   3.590  0.1343  0.0970 -0.1915
    1W        W55743  16.218   8.769   7.354  0.0613 -0.0525  0.0063
    1W        W55744   2.577  27.017   8.802  0.0622  0.0732 -0.1899
    1W        W55745  15.909  21.321   0.204  0.3337 -0.0512 -0.1395
    1W        W55746  22.021  19.477   2.004 -0.0401  0.0399  0.0872
    1W        W55747  23.298  29.635   1.553 -0.1178  0.3546  0.0762
    1W        W55748  22.423   2.678   8.754 -0.1251  0.3126 -0.2932
    1W        W55749  24.318  23.946   1.413  0.0899  0.0811  0.2932
    1W        W55750  27.674  24.715   1.092  0.0669 -0.1889 -0.1152
    1W        W55751   8.005  28.883   2.058  0.2651 -0.0581 -0.0912
    1W        W55752  29.875   7.567   8.534 -0.0098 -0.1779 -0.1279
    1W        W55753   8.781  16.433   2.117 -0.0927  0.0507  0.2513
    1W        W55754   5.235  25.708   6.854  0.0142  0.3609  0.0381
    1W        W55755  29.060  17.111   7.972 -0.3656  0.1444 -0.0157
    1W        W55756  10.742  21.121   7.605  0.1197  0.1142 -0.0000
    1W        W55757   1.596  12.187   2.402  0.1466  0.3844  0.0271
    1W        W55758   0.707   5.888   8.529  0.0450 -0.1927 -0.0918
    1W        W55759   6.451  11.469   3.139 -0.0476 -0.0214 -0.3619
    1W        W55760  16.400  21.065   0.089 -0.2532 -0.2423  0.0477
    1W        W55761   3.327   2.477   8.657 -0.2653 -0.1878  0.3493
    1W        W55762  10.339  20.033   1.721  0.0995 -0.1807 -0.0338
    1W        W55763  28.284  14.775   9.260  0.2142  0.2204  0.4182
    1W        W55764  10.574   0.032   2.675  0.1385 -0.1881 -0.1214
    1W        W55765  20.750  25.490   1.859 -0.1843 -0.0866 -0.0568
    1W        W55766  24.010  29.987   0.100  0.0826 -0.4199 -0.3576
    1W        W55767   3.000  24.429   2.273 -0.2471  0.0165  0.2254
    1W        W55768   4.422  15.606   2.210 -0.3654  0.0102 -0.0144
    1W        W55769  12.554   6.803   9.348 -0.0373  0.0116 -0.3570
    1W        W55770  19.031   8.862   1.230  0.1400  0.1323 -0.2999
    1W        W55771   2.791  16.740   0.461 -0.1429  0.2460 -0.2041
    1W        W55772  14.213  23.261   7.000  0.0363  0.0675 -0.0471
    1W        W55773  29.582  21.839   0.687  0.0795  0.2490 -0.1078
    1W        W55774  12.275  14.500   8.584 -0.0656 -0.0379  0.2284
    1W        W55775   5.806  12.567   8.719 -0.4860 -0.4643 -0.1035
    1W        W55776  14.906  15.326   1.654  0.1249  0.0490 -0.0085
    1W        W55777  26.617  23.793   8.987  0.0010  0.0369 -0.0384
    1W        W55778   1.040  24.711   6.542  0.0187  0.3378  0.3090
    1W        W55779  21.754  24.044   8.976  0.1291 -0.1725 -0.3878
    1W        W55780  21.893   2.767   0.848 -0.1240  0.4342  0.0281
    1W        W55781   2.872   3.323   9.404 -0.1254 -0.2203 -0.0996
    1W        W55782  20.580  20.012   6.759  0.0010 -0.2881  0.2273
    1W        W55783   7.033   4.788   8.307  0.2054  0.1742 -0.2322
    1W        W55784  12.698  10.240   9.396 -0.3216 -0.0774  0.0252
    1W        W55785  15.759  17.828   1.825  0.0515 -0.0797 -0.1004
    1W        W55786  16.716   5.598   8.913  0.0269  0.0757 -0.3930
    1W        W55787   5.287  16.882   7.213  0.0457 -0.0860 -0.1654
    1W        W55788  26.219   3.919   9.317 -0.0761 -0.2397 -0.0419
    1W        W55789  19.013  23.258   1.228  0.0586 -0.0263  0.1476
    1W        W55790   8.388  29.357   8.525 -0.2867  0.0224  0.0348
    1W        W55791  11.618   9.503   1.959  0.3556  0.1481 -0.0894
    1W        W55792   4.536   4.044   8.024 -0.1801 -0.0648 -0.2715
    1W        W55793   1.381  17.158   8.438  0.0818 -0.1436  0.1185
    1W        W55794  26.029   0.218   7.153  0.0320 -0.1353 -0.1878
    1W        W55795   3.759   6.494   2.203 -0.0273  0.2722  0.1064
    1W        W55796  10.027  23.537   0.079 -0.1373 -0.2448  0.1698
    1W        W55797  25.097  18.194   7.901  0.1378 -0.1999  0.1700
    1W        W55798  23.566  20.209   7.113  0.2315 -0.1384 -0.0282
    1W        W55799  16.228  28.072   0.749  0.2357  0.1577 -0.2298
    1W        W55800   9.707  26.253   1.005 -0.0260  0.1006 -0.1756
    1W        W55801   1.170   5.826   0.677  0.4014  0.1824  0.0917
    1W        W55802  14.469  11.448   1.076 -0.1297 -0.1186  0.0490
    1W        W55803  24.372  16.648   6.990  0.1782 -0.5094  0.0176
    1W        W55804  30.050  28.643   9.183 -0.1056 -0.1277 -0.0515
    1W        W55805  12.177  25.718   7.788 -0.1106 -0.1491  0.0747
    1W        W55806   6.288  21.286   6.868 -0.0900 -0.0754  0.1646
    1W        W55807  14.788  24.045   9.389 -0.1448 -0.1526  0.0329
    1W        W55808  29.319  18.661   1.869 -0.0153 -0.0224 -0.1259
    1W        W55809  16.543  28.147   1.125 -0.1221  0.0040 -0.1785
    1W        W55810   8.618  17.121   0.667  0.0346 -0.3528  0.0486
    1W        W55811  15.337   6.491   0.975  0.1886 -0.0427  0.2256
    1W        W55812   7.913  16.177   9.082 -0.0143 -0.4578 -0.0598
    1W        W55813  21.088  21.376   8.676  0.2197 -0.1551  0.3149
    1W        W55814  23.880  16.463   6.301  0.0390  0.0364 -0.1165
    1W        W55815  14.201  29.513   3.336 -0.0233 -0.2307 -0.0827
    1W        W55816  29.265  25.469   8.996  0.0394 -0.0684  0.0014
    1W        W55817  19.923  24.668   8.900  0.1164 -0.1016  0.1567
    1W        W55818  25.131  16.479   5.171  0.0846  0.0371 -0.1026
    1W        W55819  26.509   6.091   1.208 -0.0451  0.1671 -0.2905
    1W        W55820  30.091   1.088   6.749 -0.0675  0.0348 -0.3216
    1W        W55821  26.509  21.297   7.525 -0.3081  0.1774  0.2606
    1W        W55822  13.781   9.758   2.866  0.1617  0.3050 -0.1853
    1W        W55823   0.790  14.422   0.226 -0.0177  0.1473  0.0268
    1W        W55824  16.081  28.031   7.689  0.2840  0.0854  0.1037
    1W        W55825   0.647  27.057   8.281  0.1676 -0.0522  0.0294
    1W        W55826  21.188   1.585   2.229 -0.0899 -0.1009  0.2568
    1W        W55827  17.558  26.893   0.494 -0.1070 -0.0536 -0.1366
    1W        W55828   5.650  19.275   0.064 -0.1888 -0.0345 -0.1727
    1W        W55829  16.734  18.238   7.859 -0.1045 -0.2330 -0.0017
    1W        W55830  21.523   3.314   1.642 -0.1691  0.1929 -0.1409
    1W        W55831  11.482  24.690   6.714 -0.0860  0.1152  0.2372
    1W        W55832  12.640   2.903   3.409 -0.2143 -0.1071 -0.1679
    1W        W55833  25.207   7.563   2.238  0.3320 -0.2887 -0.0483
    1W        W55834  14.090  10.010   0.428  0.0174  0.2413 -0.2132
    1W        W55835  24.293  21.271   9.315 -0.0575  0.3749 -0.0015
    1W        W55836   0.988  21.100   5.346  0.1184  0.0172  0.1543
    1W        W55837   5.081  11.669   8.165 -0.2974 -0.0480  0.1608
    1W        W55838  11.530   0.908   1.650  0.0443 -0.0913  0.2793
    1W        W55839   1.908   9.153   2.740 -0.0035  0.1405  0.2841
    1W        W55840  17.411  17.551   7.090  0.1790 -0.0221 -0.1742
    1W        W55841  28.447   9.792   8.226  0.0936 -0.2324 -0.0148
    1W        W55842   0.168   9.328   8.990 -0.0457 -0.3696  0.1140
    1W        W55843  26.602   0.020   7.970  0.0563 -0.0167 -0.4270
    1W        W55844  11.527  26.451   2.321 -0.0235  0.1159 -0.1846
    1W        W55845   4.597  17.254   5.900  0.0024  0.0948 -0.1104
    1W        W55846   8.676  28.027   6.966  0.2628 -0.0492  0.1213
    1W        W55847  24.917  11.974   6.688 -0.4247 -0.1708  0.0685
    1W        W55848  14.772   5.502   9.252 -0.1256 -0.0528  0.0311
    1W        W55849   9.395   9.591   2.580 -0.2862 -0.0263 -0.3150
    1W        W55850   4.294  18.560   0.513 -0.0092 -0.2113  0.1577
    1W        W55851  11.149  26.000   0.843 -0.0571 -0.1839 -0.0898
    1W        W55852   7.569  29.806   2.263 -0.1219  0.0249 -0.1270
    1W        W55853  13.530  18.300   0.076  0.2848  0.0215  0.2526
    1W        W55854  14.615  23.344   8.166  0.2096  0.0141 -0.3174
    1W        W55855  10.692   3.749   0.393  0.0599 -0.0289  0.2195
    1W        W55856   5.678   8.682   2.914  0.2413  0.0624  0.2732
    1W        W55857   5.751  29.658   1.775 -0.1999  0.5091 -0.1015
    1W        W55858   9.408   2.471   0.540 -0.5641  0.1720 -0.3849
    1W        W55859  29.708  24.277   1.840 -0.1569  0.1287  0.1875
    1W        W55860  22.714   5.980   1.328  0.1123 -0.5595  0.2352
    1W        W55861  24.086  26.878   2.895 -0.0827 -0.4413 -0.1540
    1W        W55862  29.315   9.260   0.841 -0.0574  0.2944 -0.1818
    1W        W55863  28.928  18.785   5.416  0.1389  0.3362 -0.1993
    1W        W55864  11.997   2.992   7.458 -0.4365 -0.1545 -0.2232
    1W        W55865  13.469  26.386   8.880 -0.0327 -0.0291  0.0163
    1W        W55866  24.556   7.782   1.595 -0.1888  0.3673 -0.3401
    1W        W55867  22.004  17.407   1.910 -0.0062  0.0319 -0.0701
    1W        W55868   9.298  26.839   9.134  0.0356  0.1284 -0.0512
    1W        W55869  23.889  13.932   8.195 -0.0291  0.0026  0.1368
    1W        W55870  16.537   3.732   8.830 -0.2176 -0.0030  0.1901
    1W        W55871   1.811  29.537   7.978  0.1990 -0.3954  0.0685
    1W        W55872  12.936  20.719   1.072  0.1403  0.2403  0.1191
    1W        W55873   4.550  15.807   6.972  0.0547  0.0658 -0.2595
    1W        W55874   8.858  16.999   9.351 -0.1393  0.0045 -0.0561
    1W        W55875   8.634  21.923   6.220  0.0917 -0.1712  0.0368
    1W        W55876  14.633  25.838   9.218  0.0353 -0.0439 -0.0446
    1W        W55877  10.879   2.731   2.627 -0.4650  0.1670  0.3191
    1W        W55878  16.175  23.496   8.859 -0.0980 -0.0311  0.1059
    1W        W55879  20.317  14.742   7.015  0.1142  0.0001  0.3007
    1W        W55880   0.718  13.160   1.316  0.1086 -0.3498 -0.0727
    1W        W55881  17.047  18.879   8.179  0.0745  0.1807 -0.0269
    1W        W55882  22.785  12.295   7.955 -0.2380  0.0084  0.1363
    1W        W55883  29.269  10.245   9.277  0.0031 -0.0959 -0.1476
    1W        W55884   6.000  21.697   6.445  0.2277 -0.2087  0.3594
    1W        W55885   2.939  14.978   7.217  0.1349 -0.0612  0.0840
    1W        W55886  26.657  13.086   0.934 -0.0371 -0.0903  0.1597
    1W        W55887  22.129   9.258   0.322  0.3583 -0.2013  0.1639
    1W        W55888  28.933  26.305   0.534 -0.4078  0.3656  0.1279
    1W        W55889  23.181  22.843   0.562  0.1251 -0.0672 -0.0621
    1W        W55890   5.727   2.819   1.239 -0.2848  0.3276  0.0361
    1W        W55891  17.505   8.440   0.769 -0.4050  0.0732 -0.0204
    1W        W55892   6.713   3.367   1.372  0.2786 -0.1282 -0.1176
    1W        W55893   0.408  23.924   7.609  0.0587 -0.0479 -0.1412
    1W        W55894  25.208  18.069   8.995  0.0330  0.2646 -0.3116
    1W        W55895  24.273  19.244   9.251  0.0876 -0.2874 -0.2764
    1W        W55896  16.666  20.179   1.545 -0.1513 -0.0262  0.3066
    1W        W55897   4.920  29.167   0.702  0.0012  0.3091 -0.2819
    1W        W55898  19.952  22.347   0.571  0.0758  0.1319 -0.0875
    1W        W55899  16.963  21.262   2.280 -0.1693 -0.1934 -0.2536
    1W        W55900  11.138  14.509   8.711 -0.0592  0.2112  0.0250
    1W        W55901  24.402   0.749   2.342 -0.0347  0.1493 -0.1449
    1W        W55902   3.188  20.658   0.236 -0.2987 -0.1771 -0.1628
    1W        W55903  18.331  22.209   0.091 -0.1529 -0.2618 -0.0208
    1W        W55904  18.143   4.359   3.672 -0.1570  0.1225 -0.2790
    1W        W55905   7.796  29.947   7.564 -0.0084  0.2193 -0.1997
    1W        W55906  13.159  26.347   7.103 -0.1105 -0.0053  0.1588
    1W        W55907   3.701   9.487   0.181  0.1017 -0.0474 -0.4585
    1W        W55908   0.300  13.093   6.529 -0.0242  0.0816  0.0428
    1W        W55909  24.744   6.456   2.463 -0.1453 -0.0423  0.1685
    1W        W55910   7.731  23.686   7.509  0.2904  0.2785 -0.0131
    1W        W55911   6.892  27.292   8.250 -0.0467  0.2340  0.2488
    1W        W55912   8.315  17.424   7.141 -0.1086 -0.0028 -0.3242
    1W        W55913  25.771  17.033   1.068  0.2612  0.0983  0.0147
    1W        W55914  18.652   6.872   7.415  0.2484  0.0376 -0.0950
    1W        W55915  29.900   5.632   2.292 -0.0427  0.1058 -0.1341
    1W        W55916   5.502  18.766   5.744  0.0315  0.3456  0.2560
    1W        W55917  27.957  28.020   7.084  0.2692  0.0236 -0.0760
    1W        W55918   9.055  18.221   0.280  0.1699  0.1414 -0.3526
    1W        W55919  26.515   7.009   6.741 -0.3264  0.2101 -0.1007
    1W        W55920  20.883   1.776   8.027 -0.0774 -0.0903 -0.0503
    1W        W55921  21.415   2.201   0.253 -0.0869 -0.1445 -0.0233
    1W        W55922  27.632  18.185   9.125  0.0896  0.1556 -0.0932
    1W        W55923  24.111  12.334   0.163  0.0389  0.0749 -0.0321
    1W        W55924   9.927  18.520   6.975 -0.0999 -0.0325 -0.2092
    1W        W55925  11.934  25.994   2.163 -0.0202 -0.1368 -0.1929
    1W        W55926   6.861   0.352   8.618 -0.5054  0.0063 -0.1499
    1W        W55927   3.067  21.024   9.334 -0.0440 -0.0500  0.1834
    1W        W55928  17.026   1.156   2.440  0.2526  0.1756  0.0511
    1W        W55929   7.347  25.738   8.185  0.0179 -0.2554  0.3414
    1W        W55930   4.381  15.656   8.461 -0.1147 -0.0358 -0.0493
    1W        W55931   0.147  22.981   6.913 -0.1733  0.1066  0.1686
    1W        W55932  16.335  29.536   1.767  0.0222  0.2023  0.1216
    1W        W55933  26.808  18.863   8.381 -0.0732 -0.2689  0.5023
    1W        W55934  19.979  10.548   9.296 -0.0997 -0.1978 -0.0226
    1W        W55935   1.588  24.306   1.654 -0.1917 -0.0472 -0.0589
    1W        W55936  13.888  22.418   0.526 -0.1360 -0.0376  0.2237
    1W        W55937  17.875  14.575   0.920  0.1283 -0.2402 -0.2216
    1W        W55938  29.696   3.363   0.944  0.0120 -0.3134  0.1288
    1W        W55939   7.938   0.031   9.346 -0.1196 -0.1716 -0.1364
    1W        W55940   0.050  21.502   0.406 -0.1764 -0.3839 -0.1032
    1W        W55941  19.400  24.338   2.387 -0.1398  0.0486  0.0814
    1W        W55942  29.574  15.764   5.135 -0.2403 -0.2579 -0.0974
    1W        W55943  22.285  20.900   0.629 -0.0889 -0.1279 -0.2156
    1W        W55944  15.075  25.774   1.544  0.0415  0.2420 -0.2060
    1W        W55945   2.760   5.050   2.269  0.1270 -0.0643  0.0667
    1W        W55946  21.109  12.711   6.379  0.0663  0.1941  0.2450
    1W        W55947   3.247  23.669   2.397 -0.0982  0.0735  0.0827
    1W        W55948   8.244  28.499   0.736 -0.0077 -0.3363  0.0690
    1W        W55949   2.716   2.371   9.359 -0.2942 -0.0513  0.2057
    1W        W55950   8.951   4.837   0.339  0.0679 -0.0411 -0.1281
    1W        W55951   4.468  14.916   7.363 -0.1075 -0.0237 -0.2019
    1W        W55952   4.570  14.948   6.325 -0.2937  0.1022  0.1591
    1W        W55953  10.797   9.331   3.529  0.0842 -0.0248  0.0616
    1W        W55954  28.390  10.188   0.295 -0.1183  0.0348  0.2383
    1W        W55955  15.990   6.051   1.734  0.0436  0.0004  0.1303
    1W        W55956  17.495  16.056   9.246  0.1624  0.1253  0.0178
    1W        W55957  24.843  16.076   1.612  0.2940  0.0034 -0.2201
    1W        W55958  22.726   2.251   8.506  0.2643 -0.0580 -0.2718
    1W        W55959  26.465  24.968   6.991 -0.2849  0.0076  0.1881
    1W        W55960  14.521   3.229   0.008  0.0294 -0.1384 -0.1518
    1W        W55961  11.767  24.166   2.694 -0.0358  0.0560  0.1940
    1W        W55962  19.100   5.077   9.219  0.1958  0.1031  0.2947
    1W        W55963  22.942  17.572   8.848  0.0304  0.1886  0.0682
    1W        W55964   0.784  19.507   9.129 -0.2705 -0.0705  0.1729
    1W        W55965  16.509  15.903   8.783 -0.0570 -0.0341  0.2302
    1W        W55966  26.426  29.575   8.713  0.1016 -0.0334 -0.2590
    1W        W55967   8.381  14.252   8.341  0.0686 -0.0811 -0.1582
    1W        W55968   8.983  18.402   0.746 -0.0155  0.1092  0.0757
    1W        W55969   9.735   4.606   9.177 -0.0347 -0.0323  0.0139
    1W        W55970  13.613   8.883   9.341  0.2209 -0.0623  0.2364
    1W        W55971  11.800  23.304   9.225 -0.0361  0.0394 -0.1889
    1W        W55972  29.185  11.157   0.719  0.2296  0.2317 -0.0888
    1W        W55973   9.872   7.836   0.672 -0.1361 -0.2162  0.0705
    1W        W55974   1.606  25.979   2.630  0.0551  0.0521  0.3139
    1W        W55975   3.424  10.733   0.656 -0.1196 -0.1056  0.0692
    1W        W55976   4.997  27.579   4.301  0.1186  0.0245  0.0462
    1W        W55977   4.798  19.895   5.985  0.3175  0.0918 -0.1584
    1W        W55978  15.377  14.912   1.566 -0.0458 -0.1893  0.0049
    1W        W55979   7.537  23.351   7.845 -0.1700  0.2987  0.1848
    1W        W55980  22.093  15.258   8.426 -0.1102 -0.2290 -0.2190
    1W        W55981  23.704  10.043   6.775  0.4669  0.1989  0.0603
    1W        W55982  13.395  25.965   7.410 -0.1451 -0.0684 -0.0924
    1W        W55983  21.849   5.471   1.622  0.0092  0.0706 -0.0302
    1W        W55984  21.075  12.660   1.419 -0.2157  0.2164 -0.2932
    1W        W55985   7.462  26.897   8.266  0.1751 -0.0613  0.1413
    1W        W55986  11.346  23.700   7.761  0.0461  0.2194 -0.2070
    1W        W55987  18.296   9.067   7.654  0.0903  0.1679  0.1393
    1W        W55988  23.450  26.451   7.223 -0.2410 -0.0205  0.2835
    1W        W55989  27.031  27.379   9.098  0.0593  0.0997 -0.3859
    1W        W55990   9.404  29.609   3.553  0.2050 -0.4442 -0.1524
    1W        W55991  28.098   5.944   6.987  0.0711  0.2229  0.3216
    1W        W55992   2.812  27.959   7.617  0.4974  0.1894  0.0850
    1W        W55993  12.212  23.135   1.822  0.1566  0.1551  0.0179
    1W        W55994   2.966  10.062   6.517 -0.0691 -0.1460 -0.3602
    1W        W55995   4.200  20.166   7.182  0.1946  0.2300 -0.2706
    1W        W55996   3.634   9.981   1.015 -0.0517  0.1466  0.0777
    1W        W55997  16.913  21.017   9.350  0.0266  0.1797 -0.2984
    1W        W55998  24.291   4.782   8.523 -0.3571  0.0792  0.0417
    1W        W55999  29.194   2.819   3.009  0.1389  0.0555  0.1994
    1W        W56000  26.812  29.698   9.373  0.0794  0.2263 -0.0575
    1W        W56001   5.833   1.118   7.209 -0.1128  0.0387 -0.4244
    1W        W56002  10.570   7.654   1.834 -0.0069 -0.0345  0.2004
    1W        W56003  21.715  26.361   8.079 -0.2427  0.1692  0.0215
    1W        W56004  18.050  14.335   9.130 -0.0355  0.1778  0.1348
    1W        W56005   7.471  13.431   1.187  0.2984  0.1191 -0.3024
    1W        W56006   5.231  27.718   1.836 -0.1497  0.1720  0.0301
    1W        W56007  19.714  20.839   8.489  0.1096  0.0068 -0.1899
    1W        W56008  13.292  10.128   8.414 -0.2464 -0.0552  0.2106
    1W        W56009  13.147   2.980   8.062  0.4297 -0.4875 -0.2707
    1W        W56010  15.590  24.781   7.248 -0.1541  0.0872 -0.0346
    1W        W56011   9.292  22.804   1.956  0.0847 -0.1529  0.0779
    1W        W56012  15.530   4.685   6.536 -0.0811  0.0192  0.3983
    1W        W56013  28.585  14.033   5.743  0.1370  0.1619 -0.0243
    1W        W56014   1.931  15.960   7.452  0.1595 -0.0298  0.0018
    1W        W56015   7.203   1.881   2.446  0.1879 -0.0504 -0.0977
    1W        W56016  24.255   9.876   8.517  0.0875  0.3493  0.2265
    1W        W56017  13.670   2.800   7.225 -0.0813 -0.1253  0.1498
    1W        W56018  15.876   4.409   2.026 -0.0810  0.0739  0.1971
    1W        W56019   2.437   1.428   1.228  0.1685 -0.1075  0.2014
    1W        W56020   2.464   8.661   2.027 -0.1309  0.1970  0.0899
    1W        W56021  13.576  10.499   8.163 -0.0894  0.0709  0.0573
    1W        W56022  12.036  28.977   9.005 -0.1062  0.2357 -0.3038
    1W        W56023  17.853  16.336   0.895  0.2713 -0.1239  0.2818
    1W        W56024   6.232   1.126   2.053  0.1370  0.3929  0.2657
    1W        W56025   8.081   2.921   8.839 -0.0395  0.0402 -0.3038
    1W        W56026  25.973   6.274   1.221  0.2315 -0.0728 -0.0745
    1W        W56027   1.412  18.963   8.669 -0.0821 -0.2682 -0.0443
    1W        W56028  22.732  15.680   6.798 -0.0164 -0.0888 -0.1289
    1W        W56029  28.867  11.332   7.857  0.0626 -0.1179 -0.1081
    1W        W56030   3.318   5.785   1.769  0.1104  0.3293  0.3407
    1W        W56031   7.942   0.510   9.134  0.1638 -0.1964  0.2116
    1W        W56032  26.157  27.292   2.194 -0.0341  0.0262 -0.1453
    1W        W56033   7.493   0.830   3.215  0.1327 -0.2325 -0.1451
    1W        W56034  20.067   0.595   1.497 -0.2523  0.0359  0.2628
    1W        W56035  10.733   1.632   0.416 -0.1622 -0.4099 -0.0543
    1W        W56036  20.441   3.033   1.290 -0.0251 -0.0313  0.0033
    1W        W56037  21.969  23.093   1.154 -0.1439 -0.0080 -0.0328
    1W        W56038  23.686   3.744   7.256 -0.2362  0.0081 -0.2336
    1W        W56039  14.526  17.216   0.307  0.0510  0.2835  0.0205
    1W        W56040  29.258  23.537   8.179  0.0736 -0.0637 -0.0499
    1W        W56041  28.313  20.180   0.224  0.0194  0.0191 -0.3437
    1W        W56042  29.940   7.464   2.334  0.2641 -0.1305  0.2378
    1W        W56043  27.049   0.449   1.898  0.4711 -0.2957 -0.0577
    1W        W56044   5.318  28.069   9.243 -0.1167 -0.0107  0.1301
    1W        W56045  21.736  15.744   2.005  0.2951 -0.2081  0.5848
    1W        W56046   8.128  25.255   7.296 -0.1238  0.1447  0.1275
    1W        W56047   4.233  21.168   0.726 -0.1368 -0.0041 -0.0340
    1W        W56048  23.033  11.855   7.582 -0.1149 -0.2277 -0.1131
    1W        W56049   3.269  11.996   7.366  0.0110 -0.1694 -0.1260
    1W        W56050  24.146  11.539   0.598  0.2333  0.1379  0.1793
    1W        W56051  22.623  24.235   0.175  0.0391  0.0537 -0.0232
    1W        W56052   3.410  26.346   7.355 -0.1774 -0.0511 -0.1832
    1W        W56053  26.632  10.458   0.822 -0.0412  0.2839 -0.3076
    1W        W56054   7.860   4.976   1.331  0.0071  0.4403 -0.1408
    1W        W56055   6.203   4.736   1.361  0.1411  0.1616  0.1415
    1W        W56056  19.011  23.274   8.480  0.1285  0.1052 -0.1396
    1W        W56057   1.573  19.837   0.654  0.3909 -0.0782  0.0034
    1W        W56058  16.841   3.158   1.978  0.1562 -0.0677  0.0640
    1W        W56059   8.616  23.799   6.909 -0.0447  0.0937  0.3596
    1W        W56060   9.886  20.035   1.481  0.0361 -0.0034  0.1975
    1W        W56061   9.380  10.092   1.830  0.0886 -0.0484  0.2020
    1W        W56062  25.477   5.127   7.459 -0.4063 -0.0916 -0.1059
    1W        W56063  19.179  29.583   7.100 -0.3635  0.2147  0.1516
    1W        W56064   7.750  19.325   1.123 -0.2100  0.1445 -0.0659
    1W        W56065   9.468  21.366   7.234 -0.2659  0.1286 -0.1170
    1W        W56066   6.631   2.012   2.613  0.1181 -0.3334  0.0098
    1W        W56067  23.011  18.443   1.585  0.1103  0.0362 -0.1863
    1W        W56068  10.723   6.006   0.184  0.0287 -0.1066 -0.1085
    1W        W56069   7.226  21.059   6.902  0.0906 -0.2366  0.0472
    1W        W56070  29.726  13.467   6.622 -0.0628 -0.1309 -0.1267
    1W        W56071  10.371  14.897   2.574  0.0961  0.2554  0.0490
    1W        W56072  28.670  29.969   1.540 -0.1028  0.0090 -0.0021
    1W        W56073  30.021   7.514   6.519 -0.2734 -0.1390  0.3306
    1W        W56074  12.109   3.408   3.012  0.2042  0.0529  0.0712
    1W        W56075  23.601  29.567   9.286 -0.0449  0.0841  0.0673
    1W        W56076  11.666   1.608   7.175 -0.0391 -0.0693 -0.2215
    1W        W56077   0.482  18.069   6.335 -0.3018 -0.0938 -0.2569
    1W        W56078  26.286  24.005   2.225 -0.3306  0.4387  0.1841
    1W        W56079  10.970  15.886   1.569 -0.2166 -0.1075  0.0849
    1W        W56080  19.221  11.250   7.558 -0.5974  0.2615 -0.0724
    1W        W56081  17.397   2.677   8.037 -0.0196  0.4038  0.1779
    1W        W56082  20.328  17.935   0.641  0.0823 -0.1921 -0.1072
    1W        W56083  23.435   4.393   0.172 -0.2435  0.2715 -0.2173
    1W        W56084   0.159  23.142   1.212  0.1568 -0.1350  0.0382
    1W        W56085  20.735   6.992   7.462 -0.0872  0.3542 -0.1843
    1W        W56086   9.102  24.440   0.520 -0.2526 -0.1533  0.0674
    1W        W56087   2.511   5.621   0.421  0.2474  0.0335  0.0155
    1W        W56088  25.372  13.002   1.345  0.2656 -0.2381 -0.1325
    1W        W56089  17.083   2.955   8.326  0.3196  0.3496  0.1763
    1W        W56090  16.490  23.468   0.873 -0.2387 -0.4476  0.3042
    1W        W56091  20.725   1.671   0.262  0.3311 -0.2257  0.0093
    1W        W56092  16.631  12.666   0.351  0.0862 -0.2253  0.2969
    1W        W56093   0.513   4.561   0.551  0.0571 -0.2825 -0.1146
    1W        W56094   7.111  19.795   1.848  0.1488 -0.1719  0.1448
    1W        W56095  10.257  23.039   9.389  0.1837  0.1473 -0.1204
    1W        W56096  29.553   5.849   2.732 -0.0797  0.1353  0.0913
    1W        W56097   1.085  22.704   0.941  0.5093 -0.0479  0.2676
    1W        W56098  26.869  14.165   9.281 -0.1148  0.1269  0.1211
    1W        W56099  11.446  14.438   7.575 -0.1940  0.0458 -0.0296
    1W        W56100  29.841  25.347   6.717 -0.3016 -0.2292  0.2718
    1W        W56101  21.030   7.998   6.510 -0.3759 -0.0518  0.1593
    1W        W56102  23.296   7.839   3.039 -0.0595  0.1045  0.1348
    1W        W56103  24.111   1.886   6.239  0.0577  0.1968  0.3469
    1W        W56104  10.977  17.616   9.314  0.1558  0.3847  0.1587
    1W        W56105  24.539  20.610   6.491 -0.3913  0.2380 -0.3892
    1W        W56106   9.826   1.723   0.711  0.3333  0.1504  0.0779
    1W        W56107   2.219   6.529   6.036 -0.0069  0.0096 -0.1707
    1W        W56108   5.185  28.933   1.722  0.0963 -0.0321  0.1891
    1W        W56109  13.920   2.218   1.997 -0.0907  0.1117 -0.0136
    1W        W56110   3.333  25.434   9.008 -0.0843  0.0246 -0.0234
    1W        W56111  26.515  24.517   0.370 -0.1406 -0.0865 -0.0943
    1W        W56112  21.962  20.750   1.495  0.0405  0.0446  0.0745
    1W        W56113  19.314  13.742   0.302 -0.0668  0.3677  0.0026
    1W        W56114   1.920  24.584   1.351 -0.1664  0.1278 -0.0587
    1W        W56115  20.903   8.477   1.162 -0.0253  0.2009  0.2296
    1W        W56116  10.143   0.200   2.831 -0.0931  0.0279  0.1489
    1W        W56117  10.999  28.926   1.447  0.0596  0.0910  0.1378
    1W        W56118   9.393   1.319   7.936  0.1412 -0.1965 -0.0755
    1W        W56119  19.168  15.204   0.466  0.2712 -0.1438  0.3578
    1W        W56120  20.966  15.242   6.699  0.0274 -0.0906  0.0885
    1W        W56121  23.381   6.769   1.657  0.2843 -0.1086  0.0969
    1W        W56122  21.130   2.819   7.790  0.0953  0.2939 -0.0185
    1W        W56123  28.243  24.405   0.024  0.1489 -0.2922 -0.0356
    1W        W56124  16.448  12.175   8.485 -0.0894 -0.0244 -0.0646
    1W        W56125  22.036   8.720   7.192 -0.3221  0.2170 -0.2387
    1W        W56126  10.837  16.119   2.243  0.0401  0.3059 -0.1756
    1W        W56127  21.821   0.001   6.211  0.0837 -0.1419  0.2815
    1W        W56128  19.571   2.575   2.255  0.0983 -0.0035 -0.0442
    1W        W56129  11.390  14.381   1.576  0.0895 -0.1303  0.0141
    1W        W56130  27.707   2.987   1.503  0.1137 -0.0854 -0.0317
    1W        W56131  16.603  19.816   1.926 -0.3373 -0.0684  0.0488
    1W        W56132  27.276  11.034   0.563  0.0566  0.1951  0.0125
    1W        W56133  28.369  27.755   1.388  0.0070  0.0693 -0.0595
    1W        W56134  17.700  29.446   3.088 -0.2276  0.0515 -0.1840
    1W        W56135  10.155  26.908   6.140 -0.0080  0.1544 -0.2463
    1W        W56136  21.895  15.407   6.912  0.0279 -0.0985 -0.1429
    1W        W56137  30.040  20.499   1.283  0.1305  0.0235  0.3001
    1W        W56138  22.731  23.069   6.660 -0.3666 -0.0311 -0.1050
    1W        W56139  18.203   8.595   1.778  0.2321  0.2527  0.0349
    1W        W56140  25.367  21.658   8.379 -0.0060 -0.0475  0.5650
    1W        W56141  26.283   1.774   9.399  0.0441  0.0292 -0.1688
    1W        W56142  11.017  14.240   7.708  0.0003 -0.0952 -0.1554
    1W        W56143  19.982   0.097   8.013  0.2270 -0.0808  0.1073
    1W        W56144   8.330  13.902   1.578 -0.0982 -0.2132 -0.1572
    1W        W56145   8.558   5.480   7.929  0.2452 -0.2042  0.0036
    1W        W56146  27.158  10.975   7.665 -0.1663 -0.0096 -0.0619
    1W        W56147  15.782  10.559   8.320 -0.0169  0.1807 -0.0270
    1W        W56148  29.256   7.008   8.966  0.3269  0.0615  0.2213
    1W        W56149  27.278   0.486   7.046  0.0616 -0.1726  0.1152
    1W        W56150   0.059  10.455   1.290 -0.0601 -0.2119  0.0938
    1W        W56151  25.721   7.072   6.206  0.0708 -0.0059 -0.2648
    1W        W56152   2.926   1.026   8.195  0.1897  0.0827  0.2517
    1W        W56153   6.469  23.269   6.324  0.0195 -0.1085 -0.0096
    1W        W56154  27.114   3.716   7.395 -0.2398  0.0594 -0.1696
    1W        W56155  11.999  13.705   2.083 -0.0820  0.0873  0.1377
    1W        W56156  15.821  12.319   0.624 -0.0158  0.4671 -0.4762
    1W        W56157  12.767  17.601   1.573  0.2790 -0.0299 -0.0734
    1W        W56158   4.047  25.721   7.788  0.0303  0.0765  0.1803
    1W        W56159  10.151  28.434   0.659  0.1416  0.1129 -0.1140
    1W        W56160  28.189  13.802   0.459  0.3472  0.1009  0.0542
    1W        W56161  24.984  29.661   7.032  0.2744 -0.1674 -0.2948
    1W        W56162  29.076  19.899   9.284  0.2877  0.4085 -0.0650
    1W        W56163   4.202   7.862   2.689  0.1092  0.0766 -0.0018
    1W        W56164  28.651   5.798   0.382  0.0095 -0.0152 -0.0455
    1W        W56165   0.637  23.464   1.131  0.2556 -0.2724 -0.0606
    1W        W56166  24.560   6.508   0.208  0.1031  0.0920 -0.1248
    1W        W56167  19.297   1.770   1.937 -0.1709  0.2335  0.1025
    1W        W56168   9.711  25.308   0.818 -0.0624 -0.1365  0.0297
    1W        W56169  10.743  19.664   1.372 -0.0038 -0.0722 -0.1889
    1W        W56170  26.979   0.409   9.242 -0.2628 -0.2059  0.1147
    1W        W56171   0.124  17.413   9.067  0.0176 -0.1356 -0.2728
    1W        W56172   8.569  19.865   1.647 -0.2046  0.2327 -0.1664
    1W        W56173  18.596  13.218   0.209  0.0116  0.1835 -0.1264
    1W        W56174  27.432   9.572   2.607  0.0728  0.3020  0.2206
    1W        W56175  22.731  10.038   1.484  0.0562  0.0023  0.0320
    1W        W56176  17.189   8.769   7.335 -0.0419 -0.1321  0.1322
    1W        W56177   0.719   2.702   1.247  0.2375  0.3539 -0.0008
    1W        W56178   8.403   2.336   7.619 -0.1312  0.3131 -0.1982
    1W        W56179  14.255  16.027   9.367 -0.0271  0.4255 -0.3047
    1W        W56180  23.305  21.116   2.353 -0.2592 -0.0388  0.0263
    1W        W56181   9.660  27.295   7.822 -0.0797  0.0099  0.0949
    1W        W56182  16.610   9.569   1.039 -0.2192  0.3138  0.4058
    1W        W56183   2.465   2.544   2.618  0.0937  0.0411 -0.2697
    1W        W56184  16.325  18.068   9.064 -0.4181 -0.2080 -0.1757
    1W        W56185  28.465   9.494   9.081 -0.0348  0.0572  0.0859
    1W        W56186  15.904   3.639   1.015  0.0996 -0.0474 -0.2899
    1W        W56187   2.947  21.896   5.072  0.3246  0.0717  0.0847
    1W        W56188  21.099  24.211   2.599  0.2301  0.0156  0.4725
    1W        W56189   0.512   7.371   1.392 -0.1500  0.3230 -0.1510
    1W        W56190  15.381  29.498   8.620  0.0919  0.1180 -0.0972
    1W        W56191  13.298  23.395   6.742  0.0183 -0.1203  0.1911
    1W        W56192  21.485  10.091   8.290  0.1036 -0.1894 -0.0311
    1W        W56193  28.720  11.605   0.708  0.1699 -0.0608 -0.1152
    1W        W56194  23.063  19.200   8.122 -0.1964 -0.1508  0.2117
    1W        W56195  18.899  29.016   0.790 -0.1352 -0.1038 -0.1226
    1W        W56196  16.847   6.942   0.224  0.1036  0.1082  0.0489
    1W        W56197  24.513  22.937   6.018  0.1862 -0.2254 -0.1721
    1W        W56198  20.207  22.895   1.892  0.2074 -0.2769  0.0897
    1W        W56199  16.156   2.217   3.094  0.3254 -0.0818  0.1078
    1W        W56200  18.315  17.944   7.174  0.1951 -0.2580 -0.1110
    1W        W56201  20.098  27.642   9.020  0.0150  0.2352 -0.1227
    1W        W56202   5.004  18.842   8.282 -0.1737 -0.1824 -0.0245
    1W        W56203  18.453  12.395   1.570  0.0467 -0.0849  0.0372
    1W        W56204   0.519  16.949   5.781 -0.0744  0.3254 -0.2585
    1W        W56205  29.511  23.998   6.629 -0.1210 -0.0802 -0.1092
    1W        W56206  11.662  18.766   0.313  0.0228  0.0914 -0.1398
    1W        W56207   5.462  29.049   9.159  0.2095  0.0087 -0.0001
    1W        W56208  18.574  15.267   1.824 -0.0485  0.1433  0.2555
    1W        W56209  25.392  25.417   1.410  0.0193  0.2078 -0.3988
    1W        W56210   8.882  12.431   0.958  0.0759  0.3943 -0.0401
    1W        W56211  27.703  17.408   7.893 -0.3185  0.1103  0.0479
    1W        W56212   0.934   7.485   2.180  0.5340  0.2233 -0.3592
    1W        W56213   5.557  11.410   1.881  0.2323  0.1016 -0.2743
    1W        W56214  15.424  28.286   8.891 -0.2392 -0.1412  0.1005
    1W        W56215   8.198  16.385   0.375  0.1577  0.1361 -0.0859
    1W        W56216   8.521  25.624   6.544 -0.2010  0.1022 -0.0981
    1W        W56217  26.282   7.611   6.943 -0.1649  0.0249  0.0185
    1W        W56218   7.158  23.733   2.022 -0.1038 -0.0548  0.3641
    1W        W56219  22.822   9.487   1.326 -0.4426 -0.0058  0.2546
    1W        W56220   0.223   4.389   2.144 -0.0183 -0.0844  0.2133
    1W        W56221   4.334  25.511   8.576 -0.2474  0.0761  0.3686
    1W        W56222  16.471  28.119   3.070  0.0141 -0.0677  0.0935
    1W        W56223  26.664  15.774   0.377  0.1108  0.1093 -0.0804
    1W        W56224  11.235   6.683   9.036 -0.4023 -0.1341  0.1677
    1W        W56225   4.424  20.700   6.026  0.1694  0.0279  0.0138
    1W        W56226   6.834  25.799   0.190 -0.2173 -0.1701  0.2399
    1W        W56227  25.845  25.581   0.289 -0.1858  0.2953 -0.3828
    1W        W56228   3.389  20.084   8.222 -0.2997 -0.0737 -0.2956
    1W        W56229   2.136  20.780   7.609  0.1358 -0.0694  0.0332
    1W        W56230  28.959   9.619   0.701  0.2779  0.0671  0.0128
    1W        W56231   8.285  15.559   1.209  0.0047  0.0775 -0.3175
    1W        W56232  22.386   2.133   6.883  0.0767  0.1400  0.0123
    1W        W56233  19.144  18.384   0.605 -0.1400 -0.2129  0.1737
    1W        W56234   2.100  25.483   8.293 -0.2258  0.1583  0.1156
    1W        W56235  10.075   0.575   2.414 -0.1282  0.0737 -0.1484
    1W        W56236  14.760  15.762   7.849 -0.1322  0.0058  0.0972
    1W        W56237  11.365   0.026   1.805 -0.2043  0.2802 -0.3677
    1W        W56238  17.452  16.093   8.733 -0.1533 -0.2624 -0.3662
    1W        W56239  12.760  24.239   8.389 -0.3140  0.0638  0.1960
    1W        W56240  18.701   1.014   9.106 -0.0096 -0.1066 -0.1561
    1W        W56241  25.100   7.595   9.087 -0.0724 -0.0844 -0.1285
    1W        W56242  10.632  12.070   7.913 -0.0459 -0.4282 -0.2124
    1W        W56243  14.983  16.591   8.119 -0.0405 -0.0322  0.1141
    1W        W56244  19.041  20.829   1.655 -0.0803  0.1090  0.2102
    1W        W56245  22.987   2.807   0.673 -0.4605  0.1459  0.0844
    1W        W56246   7.228   8.064   9.105  0.0060 -0.1597 -0.0015
    1W        W56247  19.361   3.931   3.607  0.2234  0.1857 -0.1660
    1W        W56248   7.217  28.108   8.401 -0.4810 -0.0133 -0.0519
    1W        W56249   6.332  14.040   8.126  0.3774  0.2595 -0.0525
    1W        W56250  18.450  26.737   9.239 -0.0150  0.0873  0.3046
    1W        W56251   5.237  24.143   9.280  0.0294  0.4395  0.0828
    1W        W56252  15.904   2.491   2.249  0.2087  0.2194 -0.0889
    1W        W56253  20.768  27.875   2.022 -0.1789 -0.1865 -0.0610
    1W        W56254  26.035  22.293   8.870  0.2427  0.0320 -0.1312
    1W        W56255  29.138  24.812   0.845 -0.2910  0.2662  0.0759
    1W        W56256  11.006  28.402   6.967  0.2428  0.0120 -0.1347
    1W        W56257  13.055  16.424   7.608 -0.1272  0.0763 -0.0242
    1W        W56258  17.512   2.358   4.385 -0.0942 -0.2763  0.1172
    1W        W56259  21.308  13.677   8.070 -0.5984 -0.1355 -0.1670
    1W        W56260  21.491   2.685   0.400  0.1561 -0.1033  0.0903
    1W        W56261  27.102   4.326   8.441 -0.1019 -0.2859 -0.1253
    1W        W56262   1.450  29.855   6.746  0.3651 -0.2760 -0.0651
    1W        W56263   2.907  16.343   0.735  0.2825 -0.0909  0.1121
    1W        W56264  25.784  15.542   0.629 -0.2008 -0.2126  0.2434
    1W        W56265  26.667  17.469   7.062  0.2803 -0.0897 -0.2636
    1W        W56266   9.794   2.669   0.815 -0.3349  0.1521  0.1370
    1W        W56267  18.131  15.024   8.108 -0.1328  0.0585 -0.1046
    1W        W56268   9.176  16.648   0.359 -0.0785 -0.0679 -0.3791
    1W        W56269   3.679  28.802   8.292 -0.1854 -0.0855  0.0655
    1W        W56270  17.640  27.845   2.393 -0.2977 -0.0819 -0.1012
    1W        W56271   3.611  16.060   7.040 -0.1316 -0.0453 -0.0952
    1W        W56272   1.804   4.177   2.190  0.1398  0.1930  0.0315
    1W        W56273   6.288   0.346   3.040  0.1313  0.2088  0.0676
    1W        W56274  16.083  23.928   9.077 -0.3542 -0.0468 -0.1272
    1W        W56275  26.942  16.277   1.559  0.0739  0.1451 -0.3521
    1W        W56276  10.941  29.714   1.984  0.3499  0.1141  0.0860
    1W        W56277   5.996   4.471   9.229 -0.1931  0.1058  0.0022
    1W        W56278   9.583  11.068   1.686  0.1569  0.1451  0.2249
    1W        W56279  23.246   5.625   0.059 -0.1477  0.0388  0.1139
    1W        W56280  16.527  17.247   7.751  0.0636  0.2372  0.2058
    1W        W56281  25.313  12.328   8.611  0.1591  0.3662  0.0065
    1W        W56282  23.088   0.047   0.012  0.3355  0.0723  0.0161
    1W        W56283  28.885  25.898   2.591  0.0209  0.2118 -0.0610
    1W        W56284  19.488  16.886   8.416  0.1103  0.4704  0.4408
    1W        W56285  18.599  19.955   8.564  0.0553 -0.0075  0.0558
    1W        W56286  23.247  19.465   2.261  0.0319  0.0070  0.0590
    1W        W56287  15.291   6.097   0.349 -0.0468 -0.0382 -0.0150
    1W        W56288   3.563   1.520   1.191  0.2236  0.0583  0.2690
    1W        W56289   2.871  16.423   8.787 -0.2809 -0.0351 -0.1043
    1W        W56290   2.494  23.574   8.380  0.2398 -0.2411 -0.1290
    1W        W56291  16.918   7.579   7.229 -0.2171 -0.0244 -0.1750
    1W        W56292  20.564  10.642   7.121  0.3498  0.1672 -0.2112
    1W        W56293   7.332  20.053   0.785 -0.2416  0.2813  0.1237
    1W        W56294   8.913  18.551   8.369  0.2181  0.1470  0.1060
    1W        W56295  17.833  13.103   1.825 -0.0416  0.0767  0.0724
    1W        W56296  22.791   9.992   8.594  0.4355  0.1896 -0.2898
    1W        W56297  24.254   7.833   2.666 -0.3176  0.4930 -0.0401
    1W        W56298  17.231  26.528   0.671  0.3011  0.1072  0.0416
    1W        W56299   3.302  16.608   0.544  0.0490 -0.1251 -0.0499
    1W        W56300  22.143  18.534   9.260 -0.2223 -0.2986  0.1096
    1W        W56301  25.043   6.563   2.903  0.2481 -0.0079  0.0678
    1W        W56302  19.177  13.385   7.580 -0.2280  0.0252 -0.1476
    1W        W56303  26.534  14.072   7.702  0.2749 -0.1910 -0.2975
    1W        W56304   2.181   4.995   1.819  0.3356  0.5595  0.0140
    1W        W56305  23.755  18.149   7.455 -0.0188  0.2952  0.1586
    1W        W56306  22.508   4.849   9.378  0.0607  0.0880 -0.1540
    1W        W56307   9.772  13.518   8.744 -0.1912  0.0601  0.0082
    1W        W56308  17.643  27.352   0.814  0.0318  0.1906 -0.0802
    1W        W56309  23.592  19.739   7.312  0.0502  0.0999  0.2691
    1W        W56310  20.848  21.309   1.444 -0.0454 -0.0608 -0.0519
    1W        W56311  26.120   8.029   6.814 -0.0046  0.1620  0.2422
    1W        W56312  28.328  20.561   9.162  0.0372 -0.0550 -0.1958
    1W        W56313   7.019  23.470   0.036  0.1366  0.2830 -0.1950
    1W        W56314  13.390   5.644   2.674  0.0221 -0.1799 -0.0753
    1W        W56315  22.121  27.594   9.171 -0.0510 -0.3032  0.2687
    1W        W56316   6.308  25.826   0.155 -0.0462  0.0143 -0.1437
    1W        W56317   8.012  18.163   0.104  0.0993  0.0889  0.1357
    1W        W56318   3.413   9.583   1.998 -0.0102  0.1971 -0.2017
    1W        W56319  13.231  21.551   8.575  0.0530 -0.1704 -0.0090
    1W        W56320   7.922   2.354   8.600  0.0157 -0.0608 -0.2429
    1W        W56321   4.961  23.736   1.292  0.1036 -0.2536  0.1086
    1W        W56322   9.096  15.442   1.580 -0.0558  0.0014  0.0716
    1W        W56323  22.444   2.837   1.736 -0.1396 -0.1781  0.0972
    1W        W56324   5.430  21.614   8.406 -0.1578 -0.1039  0.0428
    1W        W56325  27.695   4.696   7.022 -0.1927 -0.2080  0.1009
    1W        W56326   5.184   4.416   2.388  0.3631 -0.0902  0.2169
    1W        W56327   4.409  19.652   5.737 -0.3792 -0.0912 -0.0093
    1W        W56328   4.821  11.719   0.083  0.2995 -0.1214 -0.1535
    1W        W56329  26.816  23.595   8.294 -0.1370  0.0837  0.1406
    1W        W56330   0.021   3.902   9.076  0.2602 -0.0946  0.0819
    1W        W56331   5.556  18.149   1.705  0.2717  0.1236 -0.0879
    1W        W56332  27.375  14.211   8.299 -0.0231 -0.3989 -0.2650
    1W        W56333  16.401   3.197   8.894  0.2248 -0.1454  0.2046
    1W        W56334   5.984   9.463   1.800 -0.0023  0.1791  0.1151
    1W        W56335  16.325  23.175   1.779  0.0586 -0.1519  0.3077
    1W        W56336  27.900  20.451   8.897 -0.3810  0.3058  0.0307
    1W        W56337   4.622  13.574   1.308  0.0073  0.3376 -0.2912
    1W        W56338  15.259   7.032   3.341 -0.1232 -0.2900  0.2149
    1W        W56339   3.188   8.284   2.620  0.3802 -0.0453 -0.3111
    1W        W56340  27.486   3.057   0.705 -0.1302 -0.4090 -0.1187
    1W        W56341  17.927   1.124   3.621  0.2442 -0.0913 -0.1322
    1W        W56342  23.886   7.669   7.719 -0.2528 -0.0034  0.0365
    1W        W56343  22.344  29.311   8.374 -0.0360 -0.0204 -0.1775
    1W        W56344  24.072  19.256   0.350  0.5160 -0.2286 -0.0241
    1W        W56345  21.506  16.005   8.828 -0.2184  0.0112  0.2604
    1W        W56346  14.995   5.783   8.884 -0.2522 -0.2196  0.0442
    1W        W56347  10.941  23.292   7.442  0.3477  0.0303 -0.2891
    1W        W56348  14.106  16.290   7.743 -0.0157 -0.0467  0.2975
    1W        W56349  14.688  24.318   8.554 -0.3694 -0.0640 -0.0882
    1W        W56350  24.586  29.627   1.717 -0.0461  0.1149 -0.1449
    1W        W56351  13.360  23.974   2.367 -0.4228 -0.1016  0.1162
    1W        W56352  28.341  29.030   2.341  0.1040 -0.2414  0.2708
    1W        W56353  22.709   7.523   1.375  0.0970  0.1793 -0.2947
    1W        W56354  16.762  23.887   2.085 -0.0984  0.1359  0.1196
    1W        W56355  28.946  25.579   3.145 -0.2749 -0.0826 -0.2830
    1W        W56356  29.058   5.159   1.980  0.1918  0.1302  0.0912
    1W        W56357  11.050   1.055   1.769 -0.0837 -0.2752 -0.1852
    1W        W56358   9.783   2.886   8.459 -0.2764 -0.0797 -0.0608
    1W        W56359   5.526  15.344   2.167 -0.0979 -0.0584  0.0897
    1W        W56360   3.932   4.141   0.295  0.2131  0.0578 -0.0653
    1W        W56361  18.483   9.533   1.040 -0.0654  0.3022  0.0163
    1W        W56362  11.089  10.040   3.048 -0.1626  0.0919  0.2079
    1W        W56363  20.849  21.808   0.785  0.0939  0.1302  0.2356
    1W        W56364  27.525  25.278   2.998  0.2813 -0.0069 -0.3056
    1W        W56365  21.711   1.993   9.284  0.0272 -0.2146 -0.2302
    1W        W56366   3.686  17.075   7.357  0.4468  0.0222  0.1482
    1W        W56367  17.862  12.833   0.854 -0.2783  0.1526 -0.0522
    1W        W56368  11.244   7.291   1.480  0.3772 -0.1230 -0.1592
    1W        W56369  14.799   7.575   1.735 -0.0833  0.2460  0.0065
    1W        W56370   8.908   3.317   9.350  0.1606  0.0401 -0.1702
    1W        W56371  29.576  18.018   6.397 -0.0921  0.0843 -0.2745
    1W        W56372  10.145  15.755   1.408  0.4364  0.1510 -0.1107
    1W        W56373  22.687   6.020   1.936 -0.1380 -0.3230  0.1763
    1W        W56374  22.522   5.086   7.970 -0.1134 -0.0454 -0.0943
    1W        W56375  20.798  14.027   7.279  0.3027  0.2592 -0.2179
    1W        W56376  27.827  17.876   7.657 -0.1560  0.2371  0.0161
    1W        W56377   8.008   3.140   7.907 -0.2222  0.0113  0.2193
    1W        W56378  17.956  28.003   1.349 -0.0204 -0.2027 -0.0129
    1W        W56379  21.672  11.000   0.931 -0.1146  0.0767  0.0390
    1W        W56380   7.511  12.272   0.236 -0.2231 -0.1476  0.0893
    1W        W56381   3.306   8.245   1.269  0.2399  0.0253 -0.0334
    1W        W56382  14.209  17.609   8.524  0.1809  0.2865  0.0848
    1W        W56383  26.625  25.057   8.130 -0.2919  0.1932  0.0125
    1W        W56384   7.431  24.097   5.661 -0.4310  0.3664  0.0701
    1W        W56385  26.818   9.101   8.189 -0.2882  0.0454 -0.1757
    1W        W56386  10.044   7.337   7.551 -0.1050  0.2376  0.2565
    1W        W56387  17.472  24.612   0.835 -0.3710  0.0590 -0.1514
    1W        W56388  21.343   4.493   8.228 -0.2891 -0.0949  0.0785
    1W        W56389  26.091  15.334   0.973  0.0583 -0.1831  0.0951
    1W        W56390  23.113  16.360   1.752 -0.3297 -0.1016 -0.1069
    1W        W56391   2.756   0.719   0.208 -0.0759  0.0098 -0.0573
    1W        W56392   4.671   1.450   7.548 -0.3100  0.1056 -0.3169
    1W        W56393   2.591   5.306   9.368  0.1525  0.4308  0.2335
    1W        W56394  16.724  22.994   0.915 -0.1211 -0.2368  0.0340
    1W        W56395   4.246   2.089   2.713  0.3655 -0.1649 -0.1314
    1W        W56396   3.988  27.371   8.905 -0.1152  0.2243 -0.0781
    1W        W56397   9.269   1.565   6.440 -0.0989 -0.2527 -0.0121
    1W        W56398  11.988  22.892   2.570  0.0998  0.3237 -0.2008
    1W        W56399  16.670  23.834   8.174 -0.0786  0.1832  0.1801
    1W        W56400   0.579   8.219   0.722  0.1770 -0.1143  0.0462
    1W        W56401  14.248   4.929   8.526 -0.0144  0.1832  0.0586
    1W        W56402   1.122  16.452   2.125  0.1012 -0.3547 -0.0735
    1W        W56403   6.871  29.660   2.786  0.0927 -0.1173  0.3145
    1W        W56404   0.597  27.973   8.901  0.3021 -0.0523 -0.0638
    1W        W56405  29.250  22.352   5.992  0.2634 -0.0648 -0.0583
    1W        W56406   0.073  22.330   7.452  0.1489  0.1231 -0.0400
    1W        W56407  11.036   7.791   1.541  0.4087  0.2527 -0.0732
    1W        W56408  10.652  18.091   9.127 -0.3408  0.0501 -0.0650
    1W        W56409   0.669   3.598   2.609 -0.0405 -0.4280  0.0494
    1W        W56410  29.663   0.771   1.987 -0.1703  0.0260  0.0233
    1W        W56411  29.823   5.980   1.930  0.0614  0.2330 -0.0297
    1W        W56412  24.646   3.924   0.059  0.1948  0.0553  0.3819
    1W        W56413  23.903  17.500   9.404  0.1522  0.0316 -0.4241
    1W        W56414  12.695   6.506   2.367  0.0988  0.0301  0.2425
    1W        W56415   9.870   4.085   7.191  0.4452 -0.1762  0.3007
    1W        W56416   8.986   7.502   1.071 -0.2791  0.0215 -0.2891
    1W        W56417  12.999  24.576   1.489 -0.1345  0.4037  0.2996
    1W        W56418  15.064  17.994   0.383  0.5616  0.0085 -0.0876
    1W        W56419   2.767   3.389   0.497  0.0097 -0.3326  0.1357
    1W        W56420   4.410   0.424   7.670  0.1818 -0.2834 -0.3780
    1W        W56421  25.399  15.343   2.164 -0.1459 -0.1649  0.1530
    1W        W56422  17.995   9.786   0.080  0.3948  0.1211  0.1182
    1W        W56423  19.244  13.012   1.459 -0.0048  0.0493 -0.1909
    1W        W56424  17.112   9.915   8.973  0.0911  0.0078 -0.2154
    1W        W56425  17.715  20.612   8.483 -0.0077  0.2444 -0.0997
    1W        W56426   7.851  13.650   1.575 -0.3517  0.0561 -0.1552
    1W        W56427  25.616  13.632   6.273 -0.0429  0.0729  0.0732
    1W        W56428   2.128  11.521   7.953  0.0027  0.1913 -0.0400
    1W        W56429  24.834   6.569   1.967 -0.0532 -0.2991 -0.0743
    1W        W56430  16.954   5.527   0.681 -0.0488 -0.0665 -0.1488
    1W        W56431  24.624   8.539   7.004  0.3229 -0.0480  0.0307
    1W        W56432   2.063   3.368   2.135  0.0247 -0.0603 -0.0525
    1W        W56433   3.098  28.126   1.113  0.0639 -0.0318  0.0480
    1W        W56434  24.085   0.419   1.996 -0.0157 -0.0672 -0.2120
    1W        W56435  24.610  24.870   2.780  0.0135 -0.1440 -0.0529
    1W        W56436  22.828  26.974   8.493  0.0479 -0.1815  0.1505
    1W        W56437   7.582  15.037   1.461 -0.0324  0.0373  0.1208
    1W        W56438  27.086  27.725   7.187  0.3740  0.3094 -0.1278
    1W        W56439  24.713   5.230   0.720  0.1676  0.1345 -0.1549
    1W        W56440  21.600  13.548   7.429 -0.0603  0.0659 -0.1259
    1W        W56441  11.996  26.082   2.666 -0.1301  0.0628 -0.1846
    1W        W56442   7.384  11.753   0.516  0.1500  0.0401  0.1875
    1W        W56443  12.508  24.862   2.540  0.1898  0.0503 -0.1303
    1W        W56444  15.929  11.435   0.949 -0.0797 -0.0486  0.0687
    1W        W56445  21.749  26.340   1.959  0.2535 -0.2326 -0.0339
    1W        W56446  20.831  25.582   7.120 -0.2101  0.0464 -0.0477
    1W        W56447   9.379  13.840   8.077  0.1407  0.0347 -0.1424
    1W        W56448  17.537  27.471   6.826  0.4112 -0.0038 -0.1473
    1W        W56449  10.981   6.997   2.236  0.0507  0.0162  0.1827
    1W        W56450  13.667   3.792   8.335 -0.0835 -0.2113 -0.0007
    1W        W56451  11.530  25.578   7.054  0.0382  0.1119 -0.1030
    1W        W56452  28.184   3.311   8.139  0.1296 -0.2442  0.0088
    1W        W56453  27.725  26.520   9.141 -0.0466 -0.0549  0.2812
    1W        W56454   4.499  24.957   7.259  0.2833  0.0979  0.0755
    1W        W56455   4.659  16.166   8.812 -0.2181  0.2643 -0.1190
    1W        W56456   3.234  13.990   7.679 -0.1601 -0.0784  0.0162
    1W        W56457  18.265  13.437   8.650  0.0539  0.0824  0.2895
    1W        W56458   9.000   5.641   2.552 -0.0408 -0.2350 -0.2941
    1W        W56459  13.487  26.807   8.042 -0.1324  0.2336  0.0454
    1W        W56460   1.016  27.218   1.665 -0.1684 -0.0466  0.0096
    1W        W56461   0.337  17.882   8.999 -0.0611 -0.0583 -0.3268
    1W        W56462  16.176   5.346   7.692 -0.0109  0.0701 -0.0210
    1W        W56463   9.986  21.077   6.288 -0.0252 -0.1257  0.2789
    1W        W56464  24.150  15.750   6.798  0.4056 -0.2579  0.2538
    1W        W56465  10.088  30.049   8.645  0.5252  0.2769 -0.1388
    1W        W56466   9.978  20.346   1.880 -0.0737 -0.2580 -0.2388
    1W        W56467  22.982  27.945   6.576 -0.2022 -0.0833 -0.1224
    1W        W56468  10.796   9.658   0.342  0.2786  0.1233  0.1359
    1W        W56469  17.986  23.156   7.160  0.1457 -0.1490  0.2443
    1W        W56470   6.473  22.271   7.289 -0.0914 -0.0637  0.2107
    1W        W56471  30.018   0.864   0.168  0.1502 -0.1911  0.0082
    1W        W56472  19.714  16.416   8.174 -0.0767 -0.0293 -0.0114
    1W        W56473   1.452  17.128   7.100 -0.1158 -0.0446  0.3503
    1W        W56474   3.569   7.700   9.260  0.2243  0.0146 -0.0359
    1W        W56475  18.545  23.255   7.222 -0.0900  0.1406 -0.0986
    1W        W56476  17.956   1.305   7.904  0.1184  0.2273 -0.4814
    1W        W56477   5.533  21.958   8.863  0.2826  0.0348 -0.0870
    1W        W56478   5.400  28.340   1.631  0.1556  0.0088 -0.4180
    1W        W56479  19.056  10.894   1.364  0.0025  0.2925 -0.4569
    1W        W56480  17.846  16.037   8.259  0.0244 -0.0010 -0.2416
    1W        W56481   5.874  10.451   1.754  0.0904  0.0094 -0.3814
    1W        W56482   5.193  25.736   1.510  0.2137  0.0131 -0.2626
    1W        W56483  26.751  26.116   7.914  0.0261 -0.2475  0.3773
    1W        W56484  16.770  12.872   8.025  0.3734 -0.2381  0.0584
    1W        W56485  16.111  17.586   9.389  0.1940  0.0207 -0.0609
    1W        W56486  12.462   4.223   7.072  0.4704 -0.1379 -0.1795
    1W        W56487  27.504  23.891   2.744 -0.1654  0.1871 -0.0385
    1W        W56488   0.117  25.831   1.872  0.0826  0.2386  0.2121
    1W        W56489   4.298   6.105   3.087  0.0145 -0.0396  0.1104
    1W        W56490  18.309  20.009   0.075 -0.0191  0.0107  0.0084
    1W        W56491  26.988  29.426   2.562  0.0255  0.1581 -0.0520
    1W        W56492  27.393  15.542   6.447  0.1882 -0.1410  0.1576
    1W        W56493  25.039   1.405   2.201  0.1118  0.0010  0.1299
    1W        W56494  11.446   9.153   2.765 -0.3143 -0.2225 -0.2251
    1W        W56495  28.246   4.614   8.563  0.2696  0.3848  0.0861
    1W        W56496  29.112  26.602   9.378  0.2486 -0.2740  0.1266
    1W        W56497   1.994  12.979   7.225  0.4751 -0.0015  0.3311
    1W        W56498   1.136  11.145   8.300 -0.1111 -0.0109  0.4026
    1W        W56499  25.227  13.144   0.356 -0.1064 -0.0245  0.0373
    1W        W56500  23.750  20.748   8.152 -0.1473 -0.2365 -0.0656
    1W        W56501   2.664   5.716   2.361 -0.2441  0.1117 -0.1362
    1W        W56502  20.690   0.691   1.812 -0.0691 -0.0700  0.2015
    1W        W56503   6.385  25.922   7.274 -0.1625 -0.0578  0.1441
    1W        W56504  18.000  25.837   1.505 -0.4479 -0.0775 -0.1884
    1W        W56505  16.164   4.772   0.541  0.0084  0.2704 -0.2889
    1W        W56506  13.481   6.423   2.498  0.0081  0.2319 -0.2325
    1W        W56507  21.190  12.140   1.524  0.1538  0.1731 -0.2818
    1W        W56508  12.757  24.306   8.936  0.3075 -0.3051 -0.0209
    1W        W56509  18.723  26.317   2.261 -0.1264  0.1969 -0.3024
    1W        W56510  21.349  14.450   8.978  0.5615  0.0046  0.1671
    1W        W56511   4.325  10.627   2.816 -0.3779  0.0192  0.0956
    1W        W56512  21.005  26.203   2.352 -0.3208  0.3725  0.0127
    1W        W56513  21.882  11.284   7.102  0.0026 -0.2592 -0.0829
    1W        W56514  13.283  25.903   2.067 -0.0550 -0.0979  0.1018
    1W        W56515  11.477  16.927   8.763  0.1106 -0.0353 -0.0201
    1W        W56516  13.572  21.187   1.721  0.1590 -0.1688  0.1440
    1W        W56517  12.404  19.608   8.155  0.2922 -0.3785  0.0183
    1W        W56518  25.578  27.065   7.389 -0.0737 -0.0657 -0.0585
    1W        W56519  28.205  21.772   8.603  0.0212 -0.2089 -0.2971
    1W        W56520  12.407  11.936   7.859 -0.0341  0.0459  0.0844
    1W        W56521  11.521   3.044   7.826  0.1751  0.4441  0.1857
    1W        W56522  26.125  16.117   2.135  0.4755 -0.0381 -0.1646
    1W        W56523  20.455   2.572   0.888 -0.0375  0.1109  0.1699
    1W        W56524   4.498  13.313   7.734 -0.1098 -0.1562 -0.0744
    1W        W56525  27.286   2.409   2.384 -0.1048 -0.1128 -0.0455
    1W        W56526   3.180   2.017   8.778  0.0516 -0.1032 -0.0464
    1W        W56527  16.841   8.447   1.971  0.0069 -0.2106  0.0049
    1W        W56528  11.760  25.288   2.944  0.1376 -0.0911 -0.1625
    1W        W56529  18.956  27.640   1.003  0.2982 -0.0579 -0.1867
    1W        W56530  13.137   8.585   7.881  0.1474 -0.0485 -0.0826
    1W        W56531  13.361   5.716   7.993 -0.0747 -0.0632 -0.0813
    1W        W56532  17.633  15.712   7.374  0.1047 -0.0765  0.1156
    1W        W56533  19.194   6.874   6.964  0.0695  0.1166 -0.1608
    1W        W56534   1.426   6.407   0.026 -0.2433 -0.1269  0.4055
    1W        W56535   9.771  29.090   7.957  0.0189 -0.3782 -0.1505
    1W        W56536   8.547   1.556   8.344 -0.3765 -0.1412 -0.0925
    1W        W56537  23.587  17.904   0.201 -0.1700  0.2836  0.1122
    1W        W56538  29.209   1.740   9.119 -0.4135 -0.1909 -0.0977
    1W        W56539  12.936   9.075   7.885  0.4004 -0.0095 -0.4740
    1W        W56540  21.507  12.733   0.286  0.0128 -0.1952 -0.0351
    1W        W56541  11.559   0.305   7.347  0.0457 -0.3350 -0.0464
    1W        W56542  25.527   9.401   1.376 -0.1106 -0.0237  0.0171
    1W        W56543   3.907  11.407   6.874 -0.2029 -0.0625  0.1532
    1W        W56544  26.509  24.954   0.134  0.2634  0.0452  0.0737
    1W        W56545   0.112   7.856   7.454  0.1749  0.4747 -0.3229
    1W        W56546  11.642  28.423   1.488 -0.0859  0.0637  0.0435
    1W        W56547  27.696   5.655   2.172  0.3556  0.1303  0.1030
    1W        W56548  15.540   1.187   9.277  0.0141 -0.1414 -0.2067
    1W        W56549  22.019   5.559   7.398  0.0353 -0.2592  0.1066
    1W        W56550  20.479  22.350   1.962  0.3860 -0.0107  0.0798
    1W        W56551  23.588  11.387   2.385 -0.0478  0.3016  0.0726
    1W        W56552  24.527  20.116   6.522 -0.1709  0.2680 -0.1491
    1W        W56553   5.464  14.389   7.651 -0.2875 -0.1263  0.0771
    1W        W56554  16.344   5.422   3.428 -0.0468  0.1525 -0.1351
    1W        W56555  20.055   0.888   1.095  0.0308 -0.1995  0.5332
    1W        W56556  13.798  11.733   1.847 -0.0029 -0.0915  0.1121
    1W        W56557  24.636  19.219   8.907  0.1374  0.0453  0.1986
    1W        W56558   7.597  10.906   3.791 -0.0564 -0.1664 -0.0563
    1W        W56559  24.528  22.696   8.022  0.0324 -0.1276 -0.1900
    1W        W56560  12.261  24.665   7.788  0.0142  0.0245  0.0753
    1W        W56561  13.842  10.230   3.017 -0.1136 -0.1756  0.0313
    1W        W56562   8.456   5.708   8.371 -0.5217 -0.0789  0.1436
    1W        W56563   9.522  23.738   8.519 -0.0064 -0.0606  0.1596
    1W        W56564   2.941   6.607   2.669 -0.1009  0.0098 -0.2336
    1W        W56565  15.621   6.136   9.337  0.0463  0.0628 -0.3362
    1W        W56566  30.071   3.824   7.710  0.2392  0.0243  0.1355
    1W        W56567   7.098   0.975   1.542  0.0564 -0.1114  0.1360
    1W        W56568   4.557   6.408   7.376  0.0716  0.1421 -0.0895
    1W        W56569  24.962  11.252   1.819  0.1558 -0.2766  0.0910
    1W        W56570  14.480   5.416   0.326  0.1994  0.3988  0.1241
    1W        W56571   2.345   7.817   9.266  0.4296 -0.0294 -0.1059
    1W        W56572  25.520  18.258   0.823  0.2207  0.3053  0.3210
    1W        W56573  23.795   5.452   3.401  0.0512  0.2457  0.0002
    1W        W56574  12.467  11.511   1.864  0.1593 -0.0447 -0.0156
    1W        W56575   3.840  18.882   4.890  0.0536  0.4368  0.1543
    1W        W56576  19.936  28.341   6.838 -0.2020  0.0338  0.0504
    1W        W56577   6.096  11.489   1.862  0.0859  0.0824  0.0051
    1W        W56578  24.736   3.412   9.383 -0.0754  0.0841 -0.1328
    1W        W56579  26.362  13.144   0.441  0.0389  0.0286 -0.1999
    1W        W56580  26.445   4.312   6.101  0.2525 -0.0805  0.1946
    1W        W56581   1.645   5.373   8.192  0.1583  0.3206 -0.2778
    1W        W56582  14.984  27.599   3.119  0.1351  0.1475  0.1460
    1W        W56583  27.283  24.877   0.751  0.1361  0.3807 -0.1564
    1W        W56584   4.228  24.876   6.423 -0.2905  0.1930 -0.0715
    1W        W56585   9.450  18.222   7.831 -0.0296 -0.0932  0.2442
    1W        W56586  22.463  12.706   1.706  0.0149  0.3893  0.1661
    1W        W56587  25.740  14.600   8.948  0.0950 -0.5205  0.0312
    1W        W56588  17.293  12.995   1.663  0.1633  0.0824 -0.2181
    1W        W56589  12.281  11.053   0.078  0.1241 -0.0005 -0.1414
    1W        W56590  13.370  18.220   8.695 -0.1649  0.2909 -0.1127
    1W        W56591  28.615  12.262   8.936 -0.0263 -0.0298 -0.1471
    1W        W56592  29.252   7.014   6.673 -0.1170 -0.0461  0.2744
    1W        W56593  14.571  27.304   2.966  0.2135  0.0722  0.1998
    1W        W56594  12.301   9.605   1.274  0.1229  0.2053  0.0116
    1W        W56595  25.200  14.152   0.376 -0.0639 -0.2251  0.0479
    1W        W56596  19.795  10.121   2.438 -0.0874 -0.0142 -0.0490
    1W        W56597  26.011  23.009   6.078  0.0401 -0.1690  0.0953
    1W        W56598  23.039   6.394   7.954  0.1490 -0.1416  0.3578
    1W        W56599   8.740  28.109   1.409 -0.2054  0.2232  0.0089
    1W        W56600   4.377   3.881   8.860  0.1478 -0.0646 -0.2847
    1W        W56601  18.279  24.340   6.445 -0.2125  0.2213  0.3313
    1W        W56602  12.141  28.613   9.336 -0.1385  0.0192 -0.1448
    1W        W56603  19.495  16.870   0.012 -0.2725  0.1041  0.1865
    1W        W56604  13.620  13.033   0.958 -0.0981  0.3014 -0.0539
    1W        W56605   4.379  15.909   7.396 -0.1599  0.0838 -0.4596
    1W        W56606   7.217  20.609   2.415  0.3427  0.2320  0.2520
    1W        W56607  19.740   5.301   2.314  0.1126  0.1124  0.0752
    1W        W56608  24.906  11.192   1.136 -0.0606 -0.0405  0.1717
    1W        W56609  28.321   1.224   2.784  0.1304  0.0125  0.0306
    1W        W56610  19.446   5.614   3.134  0.1942 -0.2986  0.1172
    1W        W56611  23.540  15.434   7.424 -0.1117 -0.2024  0.1654
    1W        W56612  11.812   0.323   9.249 -0.1888 -0.0504  0.1667
    1W        W56613  22.716  20.570   6.035 -0.2117  0.1182 -0.0353
    1W        W56614  28.624  26.299   1.975 -0.4887  0.0178 -0.0148
    1W        W56615  25.480  19.168   8.179  0.0460  0.0282 -0.0781
    1W        W56616  14.148   0.060   8.999 -0.1134 -0.1455  0.0586
    1W        W56617   3.654  21.269   1.601  0.0515 -0.3165  0.3947
    1W        W56618  24.855   2.931   9.282  0.0156 -0.2054  0.0388
    1W        W56619   2.024   9.267   9.247  0.0454 -0.2786  0.2520
    1W        W56620  25.307  16.487   8.311 -0.1283 -0.1804  0.1579
    1W        W56621  24.514   7.338   2.368  0.0350 -0.2560 -0.0897
    1W        W56622  28.515  10.518   7.674  0.2234 -0.2662 -0.0765
    1W        W56623   4.954  26.600   1.807  0.0036 -0.0732  0.3743
    1W        W56624  20.422  28.619   2.485 -0.2618  0.2539 -0.0116
    1W        W56625  15.347   8.868   0.654 -0.3777 -0.1417 -0.0238
    1W        W56626  11.790   5.987   7.517  0.1160 -0.1143  0.1669
    1W        W56627  25.371  19.507   7.811  0.2058 -0.0173 -0.3066
    1W        W56628   5.435   6.980   1.638  0.1760 -0.0704  0.0484
    1W        W56629   4.770  16.716   8.630 -0.2372 -0.0915  0.0276
    1W        W56630  16.205  15.542   1.625  0.0898  0.0206 -0.1853
    1W        W56631  28.851  14.510   8.477  0.1162  0.0567 -0.0861
    1W        W56632  18.562  15.157   0.812 -0.0650  0.1840  0.2124
    1W        W56633  29.599  21.059   7.964 -0.1821  0.1158 -0.0710
    1W        W56634  29.994  20.630   0.001 -0.0683 -0.0478  0.1432
    1W        W56635  22.958  26.666   7.105  0.2928  0.0527 -0.2412
    1W        W56636  28.310   1.269   8.027  0.4106  0.1563  0.1331
    1W        W56637  18.598  24.158   7.441 -0.2035  0.0406  0.3624
    1W        W56638   9.553  22.515   8.498 -0.1666 -0.1621  0.1760
    1W        W56639  12.074  23.935   8.883  0.0275 -0.0168  0.2753
    1W        W56640  10.360  10.805   0.319 -0.0567  0.1666 -0.1703
    1W        W56641  19.068  18.602   8.650  0.0852 -0.0016 -0.0466
    1W        W56642   3.021  29.466   4.198  0.2533  0.2589 -0.0460
    1W        W56643  16.538  10.233   2.289 -0.1631  0.3776  0.0338
    1W        W56644  11.334  30.135   2.665  0.2644 -0.0032 -0.0594
    1W        W56645  23.087   5.246   7.948 -0.1156  0.0798 -0.0900
    1W        W56646  23.904   7.137   1.747  0.1555  0.1808 -0.2041
    1W        W56647  22.811  10.347   8.189 -0.1734  0.0650 -0.3442
    1W        W56648   3.046   5.730   7.581  0.0079  0.1946 -0.2599
    1W        W56649  14.511  21.835   0.559 -0.1065 -0.1614 -0.1923
    1W        W56650   9.274   4.797   7.486 -0.2370  0.3096  0.0613
    1W        W56651   0.487  12.363   8.682 -0.0291  0.0141 -0.1390
    1W        W56652   6.985  21.960   7.887  0.0799  0.1535 -0.0995
    1W        W56653  17.567   7.630   9.374  0.0355 -0.1614 -0.0764
    1W        W56654  15.042  24.428   2.500  0.0292  0.0433  0.3039
    1W        W56655  11.367  15.421   7.622 -0.0445  0.0220 -0.1748
    1W        W56656   0.927   4.765   0.535  0.0571  0.0962 -0.1214
    1W        W56657  25.189  29.405   6.144  0.0558 -0.0930 -0.4963
    1W        W56658   8.360  11.789   7.297  0.0681  0.0051 -0.1241
    1W        W56659   4.348  26.686   0.064 -0.1053 -0.2909  0.1347
    1W        W56660  14.763   4.826   2.807  0.2942 -0.0900 -0.0198
    1W        W56661   1.766   6.669   3.053 -0.0855 -0.0247  0.0077
    1W        W56662  24.991  24.345   1.853 -0.0151 -0.0221 -0.2054
    1W        W56663  12.184   4.433   3.223 -0.0840  0.2929  0.2853
    1W        W56664  12.416  22.906   8.644  0.2910  0.0885  0.1976
    1W        W56665  17.349   1.689   9.132 -0.2087 -0.1848  0.1732
    1W        W56666  22.821  23.522   8.013  0.0957 -0.0507  0.2091
    1W        W56667   9.625  16.799   8.383  0.0396  0.1249  0.1514
    1W        W56668   5.540  19.317   5.564 -0.0562 -0.1433  0.2463
    1W        W56669  24.688  17.099   9.330 -0.0397 -0.1866 -0.2762
    1W        W56670   4.529   1.344   3.868 -0.0915 -0.2195  0.0911
    1W        W56671  26.584   8.614   2.500  0.4338  0.2935 -0.0868
    1W        W56672  10.845   4.644   8.058  0.3374 -0.1175  0.1169
    1W        W56673  19.407  16.155   7.475 -0.0195  0.0176  0.0728
    1W        W56674   4.389   0.792   1.270 -0.1009 -0.0259 -0.4360
    1W        W56675  13.291   4.865   0.255  0.0333 -0.0121  0.1036
    1W        W56676   0.451  20.477   6.471 -0.4908 -0.0960  0.3079
    1W        W56677  29.175  18.934   6.330  0.5341  0.1757 -0.3121
    1W        W56678  23.932  18.809   9.319 -0.2070 -0.1862 -0.4731
    1W        W56679   7.511   0.677   8.774  0.0241 -0.3265 -0.3798
    1W        W56680  11.618  11.232   1.306  0.0268 -0.0342 -0.1239
    1W        W56681  16.891  15.213   8.779 -0.1395 -0.0121  0.1331
    1W        W56682   6.199   6.058   7.851 -0.0464 -0.0679 -0.0628
    1W        W56683  29.967   4.742   8.743 -0.0275 -0.0062  0.0479
    1W        W56684   1.967  19.737   0.914  0.1963 -0.1547  0.0942
    1W        W56685  23.813   8.117   8.201 -0.2216  0.0080 -0.1468
    1W        W56686  21.125  28.253   7.617  0.5068 -0.2842 -0.2009
    1W        W56687  25.397  15.701   6.200  0.1204  0.1333  0.1281
    1W        W56688  20.842  11.288   7.641  0.3228 -0.0980 -0.0712
    1W        W56689  29.722  19.032   7.593 -0.1251 -0.0754  0.0503
    1W        W56690  28.936  21.339   7.074  0.0585 -0.0415 -0.2202
    1W        W56691   0.011  19.639   8.318  0.1229 -0.0209  0.2059
    1W        W56692  19.213  28.770   6.998  0.0338  0.0381  0.0186
    1W        W56693  29.688   0.005   2.132 -0.0323  0.3222  0.2442
    1W        W56694  14.743   9.867   8.319 -0.1236 -0.1117  0.0231
    1W        W56695  25.006   4.641   0.109  0.0440  0.1443  0.2663
    1W        W56696  18.466  20.721   0.615  0.2127  0.0395  0.1615
    1W        W56697   6.277   9.007   8.258  0.0761  0.0944 -0.0572
    1W        W56698  22.319  23.278   0.137  0.1668  0.2911 -0.1174
    1W        W56699  29.600  28.141   0.535 -0.0126  0.0516 -0.0821
    1W        W56700   3.156  27.107   1.664  0.3046 -0.0409  0.0159
    1W        W56701  25.769  28.393   1.061  0.3181 -0.3059 -0.2708
    1W        W56702  12.038   0.381   2.726  0.2898  0.0317  0.2104
    1W        W56703  12.879   3.687   8.706 -0.2979 -0.1193  0.1358
    1W        W56704  28.144  16.411   1.320 -0.0865  0.1931  0.1891
    1W        W56705  27.218  18.747   7.687 -0.0125  0.2647 -0.3035
    1W        W56706  28.760   2.935   0.769 -0.0515 -0.2609  0.0563
    1W        W56707  20.365   7.226   0.507  0.0395 -0.0657 -0.4330
    1W        W56708  28.082   4.129   8.850  0.1962 -0.2405 -0.2385
    1W        W56709  23.047  24.968   1.041 -0.0398  0.0475  0.0433
    1W        W56710   9.713  15.145   8.372 -0.0856 -0.0196  0.0147
    1W        W56711  21.399  26.037   3.362 -0.0481  0.2340  0.3844
    1W        W56712  26.726  12.974   8.719  0.0641  0.0373 -0.4128
    1W        W56713  12.051  14.230   9.148  0.1704 -0.2552 -0.3089
    1W        W56714   9.631  28.559   8.554 -0.0781 -0.3780 -0.0584
    1W        W56715   3.630   5.212   8.312  0.1896 -0.4546  0.3682
    1W        W56716   5.241  16.257   0.643  0.0681 -0.3257  0.3768
    1W        W56717   4.172  16.337   0.254 -0.2690  0.1078 -0.0336
    1W        W56718   7.192  17.787   8.328 -0.2047 -0.3027  0.1487
    1W        W56719  30.121   8.933   2.149 -0.1425  0.2607  0.0690
    1W        W56720  14.667   8.751   1.329  0.2700 -0.1155  0.0315
    1W        W56721  27.419  17.375   7.495  0.2765 -0.0497  0.0425
    1W        W56722  21.057  10.904   7.975  0.1276  0.0907 -0.1922
    1W        W56723  14.203   6.521   8.656  0.1689 -0.1814 -0.2335
    1W        W56724  17.713  25.677   0.975  0.0234  0.1135 -0.2711
    1W        W56725   5.709  21.962   5.628 -0.2148 -0.1720 -0.1727
    1W        W56726  23.926  21.559   1.225  0.2169 -0.2626 -0.3796
    1W        W56727  26.754   3.823   8.465  0.0023  0.2652  0.0059
    1W        W56728  20.993  20.449   1.425 -0.0171  0.1279  0.0572
    1W        W56729  20.827  26.835   8.078  0.0142 -0.2378  0.4028
    1W        W56730  11.747  14.842   1.495  0.0516  0.0046  0.0799
    1W        W56731  20.980   5.419   9.403 -0.1946  0.0553  0.1727
    1W        W56732  14.937   7.407   0.499 -0.0097  0.3356 -0.2001
    1W        W56733  16.582   9.070   1.053 -0.1068  0.0255 -0.1833
    1W        W56734  12.568  27.970   1.645 -0.0893  0.1261  0.0221
    1W        W56735  28.960  10.018   8.422 -0.1272  0.0542 -0.1393
    1W        W56736  29.615  26.806   0.161 -0.1077 -0.3276  0.1537
    1W        W56737   1.733  27.840   3.369 -0.1827 -0.1101  0.1138
    1W        W56738  10.324   1.891   0.444  0.1935 -0.0696  0.3833
    1W        W56739  13.490   7.924   3.184  0.1775 -0.1823 -0.0070
    1W        W56740  12.469  11.584   8.555 -0.0717 -0.1169 -0.3078
    1W        W56741  10.441   3.795   0.866  0.0499 -0.2018 -0.0495
    1W        W56742  12.128  17.295   0.231  0.0132  0.1075 -0.0624
    1W        W56743  11.159  21.497   8.061 -0.0639  0.1921 -0.1783
    1W        W56744  17.456  11.401   1.926  0.0690 -0.1481  0.2010
    1W        W56745  11.423  26.842   1.236  0.0993  0.2666  0.0516
    1W        W56746  26.475  23.842   0.076  0.0452 -0.0422 -0.0982
    1W        W56747  16.902  28.013   1.426  0.3035  0.0853 -0.0974
    1W        W56748   3.447   3.098   1.073  0.1497 -0.0804  0.0570
    1W        W56749  12.143  15.937   6.657 -0.2720  0.1069  0.0371
    1W        W56750   3.677  17.262   5.580 -0.4091  0.0784  0.0535
    1W        W56751  29.427  27.463   6.735  0.0587 -0.2531 -0.1402
    1W        W56752   5.934  15.654   6.868 -0.2756  0.0263 -0.3024
    1W        W56753  17.807   0.711   1.458 -0.0527 -0.0485  0.1581
    1W        W56754  14.707   1.649   0.144  0.3050  0.2286 -0.2065
    1W        W56755  15.791   2.396   2.741 -0.1042 -0.0910 -0.1423
    1W        W56756  10.183  13.428   6.975 -0.0609  0.1383  0.1777
    1W        W56757  26.119   5.842   0.890  0.0430  0.3973 -0.1378
    1W        W56758   1.502   5.823   9.336  0.1961  0.0918 -0.3331
    1W        W56759  20.428  27.151   1.438 -0.0714 -0.2057  0.3740
    1W        W56760  20.752   6.146   2.516 -0.3234  0.0430  0.1355
    1W        W56761   3.666   6.745   2.627 -0.3774  0.2994  0.0379
    1W        W56762  18.902   9.758   1.565  0.0322  0.2303 -0.0667
    1W        W56763  26.393  17.496   6.085  0.0010  0.0582  0.0886
    1W        W56764  12.275  12.814   7.678  0.1119 -0.4870  0.0715
    1W        W56765  15.638   0.524   0.365  0.2503 -0.1872  0.2355
    1W        W56766  21.244   0.571   7.977 -0.2082  0.0088  0.0725
    1W        W56767   4.038  16.039   8.420 -0.1049  0.5522  0.0445
    1W        W56768   4.505  22.296   1.807 -0.1459 -0.0736 -0.1676
    1W        W56769  19.078  25.207   8.585  0.1044  0.1311 -0.0529
    1W        W56770  12.877   6.246   1.570  0.1689  0.0549  0.1146
    1W        W56771   9.341   1.400   0.974 -0.0056  0.0072 -0.2106
    1W        W56772  22.738  17.558   9.299 -0.0399  0.1639 -0.2807
    1W        W56773  12.114  27.932   2.907 -0.1078 -0.1816  0.2272
    1W        W56774   1.849   7.627   9.334 -0.0559 -0.0644 -0.0145
    1W        W56775   6.283  16.144   9.036  0.0453 -0.0828  0.2676
    1W        W56776  25.413  26.881   1.636  0.2350 -0.1333  0.3167
    1W        W56777  27.019   4.016   6.586 -0.0750 -0.0714  0.1297
    1W        W56778   7.137  18.513   8.825  0.1429 -0.2354  0.2843
    1W        W56779   2.763   2.348   7.333  0.1489  0.1798 -0.3036
    1W        W56780  22.373  25.215   2.074 -0.0750 -0.0670 -0.0639
    1W        W56781   5.903  27.986   2.781 -0.0277  0.0551  0.5858
    1W        W56782  19.154  10.638   9.376 -0.3319  0.0873  0.0262
    1W        W56783  19.022  14.117   0.456  0.0537 -0.0559 -0.0196
    1W        W56784  25.821   5.540   2.149 -0.2235  0.0378 -0.3792
    1W        W56785  22.997  13.705   0.263 -0.0674 -0.1072  0.0606
    1W        W56786  17.571  18.058   8.215  0.0036 -0.3214 -0.2710
    1W        W56787  17.544   3.758   1.533  0.0487  0.0465 -0.0062
    1W        W56788  11.065  25.879   7.225  0.0200 -0.0983 -0.1896
    1W        W56789  20.113  26.630   7.284  0.0520 -0.0856 -0.0444
    1W        W56790  18.239   5.934   3.894 -0.0530 -0.2325  0.0563
    1W        W56791   3.975  13.135   7.095 -0.0859  0.0012  0.0436
    1W        W56792   3.043  27.961   8.033 -0.0509  0.2184 -0.2768
    1W        W56793  19.509  24.912   8.721  0.2336  0.1950  0.0750
    1W        W56794   2.896  28.589   1.053  0.1831 -0.2282 -0.2290
    1W        W56795  24.113  11.749   6.228  0.2057  0.0994  0.3498
    1W        W56796  14.025  26.772   3.151  0.0391 -0.2937 -0.0111
    1W        W56797   0.987   1.600   9.279  0.0370 -0.3423  0.0526
    1W        W56798  16.888   5.927   9.287 -0.0501 -0.0705 -0.0766
    1W        W56799  17.188   1.339   3.500  0.1211 -0.4327 -0.1503
    1W        W56800   8.401   5.364   3.474  0.0201 -0.3672 -0.0278
    1W        W56801  14.161  11.724   2.153  0.1084  0.0315  0.1448
    1W        W56802   4.633  16.767   1.415 -0.0376 -0.0292 -0.0807
    1W        W56803   7.654  18.822   7.829 -0.1401  0.4039  0.0142
    1W        W56804  10.901  23.419   5.616 -0.0938  0.0329 -0.2217
    1W        W56805   3.422  18.787   6.075 -0.1493  0.1392  0.0134
    1W        W56806   3.677  19.958   0.060  0.4518 -0.1996  0.0636
    1W        W56807   6.319  17.077   0.118  0.0484  0.2925 -0.0409
    1W        W56808  16.998  10.023   1.844 -0.0546  0.2587  0.0185
    1W        W56809  22.207  29.751   6.459 -0.1595  0.1603  0.1002
    1W        W56810  10.219  25.307   6.831 -0.1785 -0.1547  0.0552
    1W        W56811   3.960  13.054   6.612  0.1067  0.0660  0.2035
    1W        W56812  13.730  11.642   0.677 -0.1083 -0.0187  0.3864
    1W        W56813  17.196   4.033   8.525 -0.0284  0.1493  0.1666
    1W        W56814   3.605  17.104   9.335 -0.3313 -0.0109 -0.1211
    1W        W56815   5.550  24.573   0.000  0.0059  0.1031 -0.0215
    1W        W56816   7.103  17.797   7.397 -0.0145 -0.1036 -0.0708
    1W        W56817  22.622  17.298   8.393  0.0434 -0.1932 -0.0092
    1W        W56818   3.986  18.795   5.384 -0.0091 -0.2861 -0.0947
    1W        W56819  16.246  19.998   7.621  0.1906  0.0055  0.2451
    1W        W56820   0.465   6.931   7.458 -0.2935 -0.1531  0.0457
    1W        W56821   6.902  18.187   8.431  0.2115 -0.3510 -0.1447
    1W        W56822   5.732  29.892   2.193 -0.2587 -0.4139  0.0166
    1W        W56823  19.591  26.349   0.105 -0.0555 -0.1969  0.1249
    1W        W56824   4.847  26.514   6.536  0.1219  0.0223  0.0539
    1W        W56825  28.932   2.120   8.954 -0.1174 -0.0257  0.0261
    1W        W56826  10.175  19.167   0.715 -0.2043 -0.0948  0.0372
    1W        W56827  17.453  27.907   7.122  0.3378 -0.2697 -0.1568
    1W        W56828   9.104  21.183   6.919  0.1135  0.1532 -0.0186
    1W        W56829  23.180  26.853   7.525  0.0541 -0.2072 -0.1882
    1W        W56830  17.532  13.375   1.457  0.0737  0.0050 -0.0490
    1W        W56831  12.942   6.746   2.756  0.3121 -0.3639 -0.0193
    1W        W56832   4.660   4.880   3.019  0.2449  0.0875  0.0496
    1W        W56833  26.003   0.864   5.895 -0.3073 -0.2185 -0.1180
    1W        W56834   1.135  14.443   0.962  0.0289  0.0181  0.0423
    1W        W56835   2.092   6.100   7.989  0.0818  0.3489  0.1539
    1W        W56836   9.038  17.309   7.914 -0.1172 -0.0495 -0.0782
    1W        W56837  16.041  29.835   8.115  0.1025  0.1625 -0.0377
    1W        W56838  22.871   9.670   7.095 -0.2569 -0.1734 -0.3535
    1W        W56839  18.436  17.451   8.963  0.1579 -0.0256 -0.1495
    1W        W56840  23.049   1.737   7.872 -0.0234 -0.0520  0.3480
    1W        W56841   9.002  16.404   8.282  0.1229 -0.2289  0.2658
    1W        W56842  25.107  20.570   0.326 -0.2642  0.2903  0.2681
    1W        W56843   3.920   9.234   2.714  0.2628 -0.1859 -0.0617
    1W        W56844  27.416   0.192   0.816 -0.0671 -0.0205  0.1471
    1W        W56845  24.612   8.597   0.902  0.0073 -0.4333  0.0294
    1W        W56846   5.016  16.377   6.204  0.2220 -0.3559  0.1677
    1W        W56847  30.117   8.592   1.364 -0.1550 -0.1015  0.0217
    1W        W56848  14.673  18.138   1.109  0.2103 -0.0856  0.1060
    1W        W56849   0.986   1.731   6.639  0.0244 -0.2958  0.2454
    1W        W56850   8.770  20.795   1.132 -0.0502 -0.0311 -0.2846
    1W        W56851  23.714  19.613   6.378 -0.1107 -0.1573 -0.0414
    1W        W56852  20.268   9.741   7.959 -0.2562 -0.2754  0.0691
    1W        W56853  19.078   5.401   8.497 -0.2319  0.2428  0.0358
    1W        W56854  26.690  27.962   6.536 -0.2192 -0.0604 -0.1734
    1W        W56855  10.133   9.098   8.236  0.1134 -0.0902 -0.0910
    1W        W56856  11.733  10.448   8.247  0.1613  0.1443 -0.0104
    1W        W56857  16.398  10.525   0.900 -0.1023 -0.4496 -0.0661
    1W        W56858   5.325  10.893   0.066  0.3158 -0.1480  0.0038
    1W        W56859   8.087  21.465   8.987 -0.2067  0.1310  0.3050
    1W        W56860   1.191   3.744   8.281 -0.3504 -0.3623  0.1095
    1W        W56861   0.973  16.816   7.785  0.0678  0.1797 -0.2341
    1W        W56862  18.648   6.361   1.606  0.0090  0.1383 -0.2894
    1W        W56863  12.976  14.913   0.244 -0.0411  0.0726  0.2645
    1W        W56864  13.939   4.834   4.022  0.0703 -0.4088 -0.0614
    1W        W56865  11.879  25.550   7.458  0.1148  0.0333  0.0344
    1W        W56866  15.948  25.846   1.547  0.0332 -0.1652 -0.0627
    1W        W56867  25.895   3.357   2.365 -0.0230  0.0372 -0.2393
    1W        W56868   0.648   8.442   8.558  0.1569 -0.0585  0.0054
    1W        W56869   5.363   9.752   3.157  0.0632  0.1789 -0.2501
    1W        W56870  28.171  19.817   0.552  0.0312  0.1583  0.1235
    1W        W56871   1.075   7.584   8.051 -0.0999  0.3946 -0.2562
    1W        W56872  29.006   8.149   6.786  0.1375  0.2215  0.3256
    1W        W56873   7.178  20.055   7.282  0.0932  0.0619 -0.0061
    1W        W56874  14.186  15.965   1.377 -0.2519  0.0761  0.0835
    1W        W56875  12.840  26.647   0.478 -0.1305  0.0832  0.0032
    1W        W56876  28.262  19.543   1.418 -0.3918 -0.3303  0.0311
    1W        W56877   3.482   4.360   3.211  0.3490 -0.1467 -0.0084
    1W        W56878   7.214   0.422   8.281 -0.0952 -0.1552  0.0665
    1W        W56879   0.571  16.489   7.061 -0.1790 -0.1738 -0.2130
    1W        W56880  23.511  10.078   1.026  0.2334 -0.1224  0.0534
    1W        W56881   2.279  22.538   1.700 -0.0050 -0.2186  0.2836
    1W        W56882  21.651  27.303   6.073 -0.0912 -0.0361  0.1479
    1W        W56883  13.449  19.628   0.599 -0.1367  0.0065 -0.0399
    1W        W56884  11.511  26.625   8.911 -0.1750 -0.2409 -0.1913
    1W        W56885  20.673   5.654   2.588  0.0995  0.0158 -0.2999
    1W        W56886   5.937  14.393   1.428 -0.0527  0.1058 -0.1020
    1W        W56887  22.909   6.556   1.226  0.1978 -0.1401  0.1984
    1W        W56888  11.357  10.290   1.965 -0.1643 -0.1842  0.0407
    1W        W56889   9.074  12.982   0.126  0.2662  0.3716  0.0509
    1W        W56890  13.445   5.179   3.620 -0.0053 -0.1024 -0.2772
    1W        W56891  27.527  16.081   0.809  0.1881  0.1197 -0.5522
    1W        W56892  24.506   4.683   3.277 -0.0446  0.2057  0.1627
    1W        W56893  10.621  13.400   8.261 -0.0204  0.1416  0.1632
    1W        W56894  10.362   5.430   0.955  0.3294  0.0077  0.0543
    1W        W56895  20.002   5.079   7.769 -0.1030 -0.1834  0.3715
    1W        W56896  27.792  22.733   7.475 -0.1431 -0.3056  0.0288
    1W        W56897   6.469  11.653   0.931  0.3921 -0.4875  0.1217
    1W        W56898  29.286   8.634   6.761 -0.1142 -0.4299  0.1367
    1W        W56899   0.804   9.624   7.476 -0.1573  0.0418 -0.1719
    1W        W56900   2.630  21.241   7.457  0.4983 -0.2472  0.0299
    1W        W56901   8.338  17.359   1.443 -0.0471  0.0774 -0.1048
    1W        W56902   2.032  10.021   1.212 -0.1714 -0.1847  0.2754
    1W        W56903  11.245  17.521   8.265  0.3038  0.0585  0.0777
    1W        W56904  19.854   6.030   3.037  0.0219  0.3722  0.2020
    1W        W56905  16.958  26.827   0.239  0.0563 -0.4501 -0.1538
    1W        W56906   2.573  24.489   2.534 -0.1649 -0.0558  0.0451
    1W        W56907  23.320  29.120   3.538 -0.0823  0.0074  0.1155
    1W        W56908  29.313  23.051   8.236  0.0683  0.0926 -0.3210
    1W        W56909   7.766   8.611   1.068  0.4549  0.3534 -0.0289
    1W        W56910   7.384   3.788   2.567 -0.0305 -0.2635  0.1239
    1W        W56911   9.446   9.372   3.035  0.0459  0.1417 -0.0425
    1W        W56912  16.686  28.876   8.802 -0.1539  0.1198 -0.1765
    1W        W56913  26.463  16.111   7.548  0.0468 -0.0023  0.2518
    1W        W56914  21.357  11.817   2.635  0.0568 -0.0478  0.1002
    1W        W56915  17.739   0.080   8.183  0.1204  0.0788  0.1607
    1W        W56916  24.105   1.207   7.530  0.0503 -0.1655 -0.0709
    1W        W56917  14.259  24.352   9.333  0.0906  0.2077 -0.0705
    1W        W56918  22.058   0.994   1.223  0.1122  0.0616  0.3755
    1W        W56919  23.042   7.532   2.627 -0.0127  0.0485  0.1927
    1W        W56920  18.281   3.112   0.675  0.1505 -0.0018  0.0461
    1W        W56921   4.143   7.610   1.197 -0.0684 -0.1215 -0.1496
    1W        W56922  12.560  21.032   7.844  0.1089  0.1985 -0.1616
    1W        W56923   1.764  14.526   7.673 -0.1641  0.2335 -0.0983
    1W        W56924  14.331  13.906   8.842  0.2546  0.0292  0.1712
    1W        W56925  24.575  11.535   2.139 -0.0579 -0.0188 -0.0609
    1W        W56926  28.090  11.850   5.881 -0.1440 -0.1646  0.0596
    1W        W56927   8.949  10.341   1.848 -0.1587 -0.0453 -0.1442
    1W        W56928  15.857  17.159   0.673 -0.0973  0.0910 -0.0987
    1W        W56929  28.523  15.481   5.897 -0.0118 -0.0468  0.0195
    1W        W56930  22.681   2.750   1.313 -0.2770 -0.2224 -0.0733
    1W        W56931  11.344  10.014   3.530  0.2586 -0.0860  0.0088
    1W        W56932  16.799  23.190   9.364  0.0037  0.0615 -0.1118
    1W        W56933  20.144  23.064   1.364  0.2395 -0.0888 -0.0814
    1W        W56934   1.884  12.521   8.856 -0.1626  0.0821  0.3128
    1W        W56935  29.336  12.241   8.011  0.2797  0.0375  0.2040
    1W        W56936  21.009  23.326   6.816  0.3373  0.1280  0.1428
    1W        W56937  21.100   7.793   0.233  0.0572 -0.0799  0.1780
    1W        W56938  13.161  16.715   2.092  0.1240 -0.0635 -0.0254
    1W        W56939   9.795   4.532   2.333 -0.0858  0.2782  0.1667
    1W        W56940  27.006  10.481   7.656 -0.0990 -0.3638 -0.0056
    1W        W56941  30.002   8.890   8.243 -0.0718 -0.0245 -0.1968
    1W        W56942  27.796  18.756   6.118 -0.0699  0.3008  0.3020
    1W        W56943   6.433   5.162   0.474  0.0492 -0.0685 -0.0240
    1W        W56944  25.628   2.727   6.833 -0.0885 -0.0067 -0.1700
    1W        W56945  22.812  12.627   0.114 -0.1869  0.0690  0.2789
    1W        W56946  27.706  25.482   6.736  0.0436  0.2959 -0.0489
    1W        W56947   4.384   4.407   0.155 -0.1172 -0.3255 -0.0895
    1W        W56948   8.902   9.336   0.615 -0.2499  0.0621  0.0801
    1W        W56949   4.766  21.367   7.839  0.0824  0.0353  0.2246
    1W        W56950  14.455  27.749   1.897  0.1485  0.1516 -0.1595
    1W        W56951  18.287  12.438   7.356  0.0790 -0.1798  0.1228
    1W        W56952   5.638   5.603   8.051 -0.1162 -0.0624 -0.0393
    1W        W56953  29.223  21.676   6.686  0.3012 -0.1633 -0.0965
    1W        W56954  15.700   4.130   2.946 -0.0395  0.0455  0.0743
    1W        W56955   7.571  20.164   1.596  0.1581  0.2266 -0.4208
    1W        W56956   0.046   6.523   1.550  0.0569  0.1573 -0.0509
    1W        W56957  17.570   9.497   7.138 -0.1562 -0.1831  0.0705
    1W        W56958  19.062  28.985   6.007  0.0332 -0.0874  0.3573
    1W        W56959  17.724  26.248   8.284  0.1601 -0.0767 -0.0210
    1W        W56960  17.477  14.682   8.465 -0.5335 -0.1000  0.3463
    1W        W56961  22.207  20.599   6.563  0.1768 -0.3029  0.2724
    1W        W56962   2.054  26.366   8.847 -0.0931  0.0430 -0.1486
    1W        W56963   8.873  25.691   7.089  0.1113  0.0346 -0.2698
    1W        W56964  22.047  17.743   1.548 -0.0489 -0.0778 -0.0724
    1W        W56965   3.600   9.416   0.802  0.0948  0.1513 -0.3657
    1W        W56966  15.977  27.658   8.511  0.0406 -0.0632  0.2893
    1W        W56967  10.951   3.156   3.743 -0.0833 -0.0413  0.0904
    1W        W56968   8.651   0.631   3.612 -0.2134  0.1229  0.3854
    1W        W56969  14.425  17.848   2.012 -0.0998  0.1201  0.1651
    1W        W56970  18.444   8.339   0.512 -0.0018 -0.1158 -0.3470
    1W        W56971  14.801  12.951   2.107 -0.0095 -0.1216 -0.2039
    1W        W56972   7.012  12.906   2.344 -0.1690 -0.1571  0.1977
    1W        W56973  25.189   8.994   5.597 -0.0203 -0.0051  0.3344
    1W        W56974  19.242   8.119   0.773  0.1176 -0.0925 -0.0147
    1W        W56975  12.529  13.007   1.115  0.2321 -0.2920  0.0272
    1W        W56976  23.966   3.349   7.225  0.0753  0.0493 -0.1840
    1W        W56977  19.203  20.095   6.980 -0.2805 -0.0659  0.1797
    1W        W56978  24.731   4.735   0.558 -0.0384  0.0651 -0.0091
    1W        W56979  15.405   0.170   1.072 -0.3061  0.1590  0.0287
    1W        W56980  21.830  19.572   0.043 -0.1604 -0.0263  0.0949
    1W        W56981  28.206  17.521   7.804 -0.0743  0.0641  0.2336
    1W        W56982  14.183  25.132   0.784  0.1506 -0.3485 -0.1304
    1W        W56983  23.386   2.809   8.649  0.1940 -0.1093 -0.0871
    1W        W56984  10.789  18.588   8.633 -0.2229  0.0583  0.3009
    1W        W56985  25.466  13.785   8.880 -0.1751  0.4009  0.0840
    1W        W56986   4.150  13.777   2.463 -0.1187 -0.1325  0.3684
    1W        W56987  22.403   6.996   8.657  0.2011  0.1729 -0.1302
    1W        W56988  15.320  27.889   2.908  0.0337 -0.0177 -0.4923
    1W        W56989  28.133  20.917   0.677  0.1344 -0.0735  0.0314
    1W        W56990   9.956  18.911   8.470 -0.0850  0.0604  0.1027
    1W        W56991  23.686  26.107   2.779 -0.1519  0.0052  0.0037
    1W        W56992  28.528   9.819   6.965 -0.0632 -0.0948 -0.0455
    1W        W56993   4.311  14.889   6.917  0.1293 -0.0081  0.2056
    1W        W56994  27.476  15.319   1.356 -0.0376  0.0525 -0.1464
    1W        W56995   7.652  22.961   5.705 -0.2608  0.2781 -0.2099
    1W        W56996   2.642  19.146   0.794 -0.1603  0.2783  0.0073
    1W        W56997   9.073  11.861   8.761  0.2703 -0.1122 -0.2810
    1W        W56998  12.244  20.562   2.173  0.2167  0.3289  0.0524
    1W        W56999  22.646  20.895   7.425  0.0922 -0.1182 -0.4201
    1W        W57000   2.821   5.072   1.691 -0.2208 -0.1844  0.1597
    1W        W57001  14.977  24.438   0.389 -0.1619 -0.0694 -0.0277
    1W        W57002  17.367   8.169   2.658  0.0567  0.3288  0.2107
    1W        W57003   9.359   5.497   9.035  0.0362 -0.0105 -0.0565
    1W        W57004  20.809  29.884   1.836  0.2431 -0.2253  0.3001
    1W        W57005  11.454  26.555   0.057 -0.0719  0.0918  0.2400
    1W        W57006  11.891  26.488   1.991  0.2956  0.1563  0.0276
    1W        W57007   7.652  15.949   8.345 -0.2880 -0.0258 -0.1375
    1W        W57008  24.269   6.291   0.580  0.2756 -0.0523 -0.1090
    1W        W57009  18.857  19.973   1.035 -0.0749  0.2355 -0.1268
    1W        W57010   3.236  26.042   8.592  0.1171 -0.1932 -0.0036
    1W        W57011  11.694  24.300   8.935  0.1403 -0.0264 -0.1825
    1W        W57012   1.303   4.384   2.179  0.2063 -0.2244  0.1535
    1W        W57013  17.881  18.898   1.708  0.1634  0.1503 -0.1156
    1W        W57014   1.927  17.294   6.860 -0.2461  0.3881  0.2035
    1W        W57015  26.634  27.866   9.171  0.1741 -0.4217  0.2402
    1W        W57016   7.126   7.341   0.680 -0.2241 -0.2128 -0.1809
    1W        W57017  27.425  10.969   1.383 -0.0037 -0.3924 -0.0157
    1W        W57018  23.859  21.237   9.038  0.0093 -0.0034 -0.2304
    1W        W57019  19.518  10.634   6.934  0.1662  0.1542 -0.0659
    1W        W57020  18.093  24.982   7.677 -0.2285  0.1983 -0.1896
    1W        W57021  20.384  28.225   2.016 -0.1699  0.0448  0.2436
    1W        W57022  24.133  11.827   1.910  0.1814  0.0042 -0.1155
    1W        W57023  11.410   1.625   3.952 -0.1806  0.0236 -0.4983
    1W        W57024  21.905  21.731   2.404  0.2458  0.0450 -0.2005
    1W        W57025   7.962  26.588   0.445  0.2865 -0.1823 -0.1076
    1W        W57026   1.999  12.647   8.351  0.1543  0.2388  0.0700
    1W        W57027   6.359   3.760   2.875  0.0167  0.2081 -0.0451
    1W        W57028  11.276   9.098   9.034  0.4021 -0.3243  0.3771
    1W        W57029  29.969   3.777   8.547 -0.0562 -0.0268 -0.1824
    1W        W57030   5.832  16.397   7.997  0.0870 -0.4007  0.0310
    1W        W57031  14.516  10.948   9.259 -0.1386 -0.0433 -0.3350
    1W        W57032   7.499  12.944   0.488  0.1254  0.1752  0.2303
    1W        W57033  26.094  10.842   1.356  0.1263  0.0616 -0.2471
    1W        W57034   2.607  26.604   9.056  0.1787 -0.3665  0.0205
    1W        W57035  17.222  26.775   3.037 -0.0155  0.0005  0.1264
    1W        W57036  11.657  26.416   8.334 -0.3165 -0.3141 -0.1797
    1W        W57037   8.111  26.226   1.085 -0.0053  0.0628 -0.2272
    1W        W57038   9.038   2.942   1.533  0.0634 -0.1303 -0.0545
    1W        W57039  26.410   7.517   0.251 -0.0925 -0.3654 -0.2857
    1W        W57040   2.985  17.400   6.114  0.1567 -0.2387 -0.1241
    1W        W57041   6.805  14.249   2.578 -0.1484  0.2013 -0.0930
    1W        W57042  19.810   5.972   8.319 -0.0826  0.1924 -0.0239
    1W        W57043  23.035   5.200   8.502  0.0286  0.0608 -0.0162
    1W        W57044  16.461   0.586   2.367  0.1195 -0.1179 -0.1385
    1W        W57045   0.324  12.120   0.330 -0.1276 -0.2412  0.0485
    1W        W57046   4.816   5.711   7.803 -0.2394  0.2646 -0.0827
    1W        W57047  25.169   5.250   7.089  0.3640 -0.1690 -0.0979
    1W        W57048  21.841   4.727   8.237  0.2817  0.2444 -0.1226
    1W        W57049   2.896   7.332   2.706  0.0218  0.3680  0.0978
    1W        W57050  17.595  15.563   8.014 -0.0630 -0.1931 -0.0181
    1W        W57051  17.441   3.750   8.080 -0.0418 -0.3126 -0.0268
    1W        W57052   5.695  20.100   1.122 -0.0346 -0.2476  0.0481
    1W        W57053  13.891   8.389   2.406 -0.1900 -0.0450  0.0922
    1W        W57054  25.151  17.745   9.368 -0.1854 -0.0702  0.0086
    1W        W57055   5.395   1.102   8.144 -0.0261  0.0837 -0.2009
    1W        W57056   2.783   0.001   1.935  0.1249 -0.0026 -0.2274
    1W        W57057  15.419  19.439   0.899 -0.0952 -0.1937 -0.1113
    1W        W57058   7.407  17.304   0.975  0.1948 -0.2157 -0.2159
    1W        W57059   4.928  28.368   2.354  0.0633 -0.2988  0.0404
    1W        W57060  28.052  22.758   8.564  0.2677 -0.1080  0.3055
    1W        W57061  15.713   6.955   8.759 -0.0158  0.1003 -0.0348
    1W        W57062   3.548  10.544   2.579  0.0522 -0.0161 -0.1828
    1W        W57063  23.624  15.975   6.321 -0.2072  0.0416  0.0382
    1W        W57064  28.472   1.389   8.477  0.0720 -0.1741  0.3576
    1W        W57065  18.121  10.782   7.357 -0.0583 -0.1312  0.0455
    1W        W57066   8.945  11.734   8.224  0.1496  0.0821  0.0948
    1W        W57067  19.716  24.841   6.851 -0.1315 -0.2427 -0.1078
    1W        W57068  23.991   5.163   7.565 -0.1189  0.0956 -0.0037
    1W        W57069  13.978  20.227   7.074  0.1692 -0.2165 -0.1179
    1W        W57070  13.639  29.809   1.805 -0.2321  0.1683  0.0993
    1W        W57071  24.431   2.693   7.541 -0.0932  0.1032 -0.1874
    1W        W57072  29.706   6.886   8.844  0.0593  0.3445  0.1020
    1W        W57073  15.319  25.324   0.228  0.4311 -0.1154 -0.1746
    1W        W57074  12.213   1.758   9.314  0.3028 -0.2896  0.3473
    1W        W57075  16.153   5.858   7.788  0.1202 -0.0354  0.0356
    1W        W57076  29.912  20.171   6.222 -0.0305  0.2187  0.3553
    1W        W57077  14.722  28.775   1.768  0.0550  0.1110  0.1139
    1W        W57078  27.005  17.998   7.183 -0.2635 -0.0548 -0.3586
    1W        W57079  17.238  28.361   9.161  0.0527 -0.0828 -0.1576
    1W        W57080  10.331   4.251   0.580  0.1357  0.0820 -0.2989
    1W        W57081   3.402  22.902   5.313  0.1070 -0.1245 -0.0466
    1W        W57082   1.391   8.818   1.520 -0.2357 -0.2704 -0.3027
    1W        W57083  10.937  15.634   2.016 -0.5269  0.1684 -0.2778
    1W        W57084   7.629  13.736   3.592  0.1916  0.0789 -0.0745
    1W        W57085  27.651  18.930   2.548  0.0987 -0.2365  0.0741
    1W        W57086  22.785  26.451   1.792  0.0758 -0.0970  0.0106
    1W        W57087   8.223  16.263   2.087  0.1084 -0.1374 -0.1254
    1W        W57088   6.481  11.801   0.475  0.3151  0.5173  0.1549
    1W        W57089   8.020  18.604   9.192  0.1359 -0.2757 -0.0909
    1W        W57090  24.725   7.797   7.420 -0.0670 -0.1472 -0.0520
    1W        W57091  22.088   3.788   2.118 -0.1691 -0.0347 -0.2217
    1W        W57092   5.129  11.464   7.647 -0.0510 -0.0613  0.0705
    1W        W57093  10.919   8.465   8.652 -0.0378 -0.1888  0.3730
    1W        W57094  20.364   6.171   7.938 -0.0695 -0.0532 -0.2862
    1W        W57095  30.091  22.907   8.951  0.0705  0.1766  0.1813
    1W        W57096  28.590  18.205   1.500  0.0392  0.0092  0.0426
    1W        W57097  13.253   0.648   1.782  0.1397  0.3820  0.1721
    1W        W57098  11.035   2.337   4.122  0.0175 -0.2465 -0.2794
    1W        W57099  17.781  11.941   0.683 -0.0803  0.0757 -0.3743
    1W        W57100  17.404  10.449   1.942  0.2007 -0.0831 -0.1038
    1W        W57101   7.280   3.701   3.050  0.1965 -0.0390 -0.1108
    1W        W57102  22.428   6.802   0.038 -0.0041  0.1833 -0.0991
    1W        W57103  14.658  26.181   8.795 -0.4720  0.2682  0.1868
    1W        W57104  29.375   9.011   8.996  0.0294  0.0733 -0.1048
    1W        W57105  29.737   5.773   1.433 -0.1531  0.1398 -0.3151
    1W        W57106   6.516  13.492   2.817  0.0449 -0.1419 -0.1123
    1W        W57107  20.569  23.514   1.804  0.1483 -0.1359 -0.3216
    1W        W57108   6.711   0.941   1.859  0.2374 -0.0232  0.0001
    1W        W57109  13.897  14.557   0.457 -0.3749  0.0894  0.0778
    1W        W57110   4.874  13.309   2.257 -0.0086 -0.2809  0.0196
    1W        W57111  29.259   1.164   0.114  0.2045 -0.0720  0.0186
    1W        W57112  23.884  27.879   2.184  0.1337  0.1801  0.0122
    1W        W57113   2.072  25.388   8.743  0.0172  0.2354 -0.0389
    1W        W57114  22.161   3.895   0.562 -0.1152  0.0857 -0.1723
    1W        W57115  16.750   9.652   0.524 -0.0089 -0.1538 -0.2164
    1W        W57116  13.306  22.105   6.201 -0.2626  0.2908 -0.2465
    1W        W57117   0.545  14.697   9.246  0.2090  0.1713  0.2247
    1W        W57118  21.284   9.769   6.869 -0.1481 -0.0653 -0.0179
    1W        W57119   6.761  16.033   6.630  0.2793 -0.0822  0.0920
    1W        W57120   7.036  26.006   6.079  0.1399  0.3342  0.4687
    1W        W57121  10.035  25.473   6.369  0.2819  0.0985 -0.0868
    1W        W57122   7.225  13.661   1.582 -0.0184 -0.4228 -0.2071
    1W        W57123  28.588  23.359   1.914 -0.1925  0.1410  0.3235
    1W        W57124   8.639   1.486   7.195  0.1253  0.3372  0.1769
    1W        W57125  15.361  15.825   1.693  0.0040 -0.2126  0.0715
    1W        W57126  16.965   4.425   3.383 -0.0554 -0.0988  0.0167
    1W        W57127  27.762   9.776   1.976 -0.2367  0.2401  0.0105
    1W        W57128   8.041  17.764   1.366  0.0085  0.0565 -0.0020
    1W        W57129  19.613  29.970   3.394  0.1225 -0.1828  0.0376
    1W        W57130  25.657  17.236   6.363 -0.1553 -0.0957  0.0254
    1W        W57131  14.531  11.210   8.742 -0.0742 -0.0063 -0.1100
    1W        W57132  13.991   1.291   3.052  0.2958  0.0743  0.1744
    1W        W57133  16.565  25.476   2.571  0.0946  0.0017  0.1846
    1W        W57134   6.644  27.215   1.469 -0.0943  0.0647  0.2223
    1W        W57135   7.801   8.024   0.418 -0.0048  0.0530 -0.1111
    1W        W57136   3.158  22.527   6.062 -0.0008 -0.0367 -0.0403
    1W        W57137  20.518   0.151   1.617 -0.1360 -0.2560 -0.0530
    1W        W57138   2.552  14.506   5.883 -0.3409 -0.0110 -0.1582
    1W        W57139  13.364   3.835   0.431 -0.0295 -0.2281 -0.0075
    1W        W57140  12.819  27.719   1.998  0.1835  0.2658  0.1861
    1W        W57141   6.810  10.108   7.023  0.1956 -0.1384 -0.2792
    1W        W57142  20.710  17.296   8.261 -0.1950  0.1132 -0.2456
    1W        W57143  22.585  30.126   2.100  0.1474  0.3769 -0.0405
    1W        W57144   1.245   7.546   1.821 -0.0490 -0.0377  0.0568
    1W        W57145   5.953  22.811   0.903  0.0449 -0.0053  0.4983
    1W        W57146  19.448  17.692   6.711 -0.0350 -0.1491 -0.2041
    1W        W57147  22.799  25.367   8.366 -0.1991 -0.1806 -0.5026
    1W        W57148  14.309   0.892   3.037 -0.0061 -0.1006  0.1936
    1W        W57149   4.004  18.911   0.299  0.0218  0.0982  0.3089
    1W        W57150  17.243   6.893   8.555 -0.0139 -0.3120  0.0149
    1W        W57151  14.237  22.980   2.943  0.1508 -0.3195  0.1889
    1W        W57152   0.705   0.088   1.617  0.0134  0.2945 -0.2636
    1W        W57153   8.005   1.694   0.402 -0.0288  0.0354  0.1785
    1W        W57154  22.696   7.813   0.914 -0.2490 -0.3111 -0.0771
    1W        W57155  10.192   6.782   0.232  0.2206  0.2726  0.0522
    1W        W57156   0.146  20.149   7.680 -0.2375  0.5548 -0.2138
    1W        W57157   2.896   1.141   7.331 -0.0013  0.0065  0.1439
    1W        W57158  26.754  12.648   1.700 -0.1422 -0.1206 -0.1817
    1W        W57159   0.131   0.562   3.109 -0.1586  0.2953 -0.1632
    1W        W57160  11.581  24.920   2.076  0.0945 -0.2601 -0.2278
    1W        W57161  15.262  24.804   7.607 -0.1100  0.0142 -0.3456
    1W        W57162   9.234   3.000   7.358  0.1533 -0.1921 -0.1314
    1W        W57163  21.551  17.588   1.847 -0.4239  0.1167 -0.1204
    1W        W57164   3.209   4.960   1.953  0.1199 -0.0870  0.3071
    1W        W57165  25.730  22.639   0.527 -0.1635  0.1224 -0.0175
    1W        W57166   0.970  22.690   2.124 -0.0271 -0.0173 -0.1117
    1W        W57167  26.186  23.011   8.976  0.3143 -0.4373  0.0975
    1W        W57168  24.120  26.437   2.586 -0.1007  0.0690 -0.3413
    1W        W57169  10.912  29.484   3.353  0.0350 -0.0129  0.1067
    1W        W57170  22.103   0.284   2.958 -0.0441  0.1718  0.1200
    1W        W57171  15.135  13.122   1.056 -0.1664 -0.1634 -0.1150
    1W        W57172  14.751  25.207   2.640 -0.2671 -0.1443 -0.1601
    1W        W57173   7.078  17.024   8.012 -0.2843  0.0455  0.1907
    1W        W57174   5.960  10.971   9.002  0.0603  0.0698  0.1581
    1W        W57175   5.086  14.072   7.526 -0.0402 -0.0406  0.0031
    1W        W57176  16.051  23.470   2.569 -0.2029  0.2194 -0.0792
    1W        W57177   5.271  10.928   2.898 -0.0965 -0.1796  0.3170
    1W        W57178  30.002  11.065   7.372  0.0121  0.1474 -0.0789
    1W        W57179  12.853  29.692   3.895  0.0039  0.1733 -0.0795
    1W        W57180  25.317  21.067   0.525 -0.1274 -0.0113  0.2965
    1W        W57181   0.430   8.667   2.167  0.0026  0.0587  0.0770
    1W        W57182  16.311  20.899   6.656 -0.0064 -0.2471  0.2649
    1W        W57183  18.703  21.849   7.506  0.0173  0.1641 -0.1464
    1W        W57184  28.946  13.917   1.881  0.0493 -0.1312  0.1811
    1W        W57185  16.261   1.047   0.508  0.2338 -0.4310  0.0365
    1W        W57186  15.098  16.828   0.804 -0.0589 -0.0222  0.2256
    1W        W57187  11.010   3.321   9.134  0.2584 -0.0785  0.1548
    1W        W57188   3.107  17.949   6.329 -0.1761 -0.0184 -0.3373
    1W        W57189  21.678  24.587   7.213 -0.1037  0.4141  0.1711
    1W        W57190  18.031  23.772   8.901 -0.2766 -0.2753 -0.1756
    1W        W57191   2.168   3.825   9.235  0.2693  0.2593 -0.1207
    1W        W57192   6.430   5.081   6.870 -0.0769  0.1042 -0.0142
    1W        W57193  21.639  29.686   7.113 -0.2414  0.1359  0.1889
    1W        W57194  28.972  27.686   6.666  0.0243  0.2006 -0.1755
    1W        W57195  25.258  21.696   0.689 -0.2885 -0.0251 -0.2431
    1W        W57196  11.417  21.285   1.810 -0.0791 -0.4381 -0.0469
    1W        W57197  21.418  12.248   9.169 -0.0205 -0.0389  0.1092
    1W        W57198  29.135   0.588   2.764  0.0056  0.2013 -0.0756
    1W        W57199  12.983  24.520   0.512  0.2171  0.0075  0.1337
    1W        W57200   6.232  14.646   7.771  0.0424  0.2873  0.1198
    1W        W57201   5.590  21.244   1.247 -0.1876  0.0653  0.2383
    1W        W57202   0.435   1.524   9.353  0.0288 -0.0944  0.0233
    1W        W57203  16.712  15.000   6.994  0.0789  0.1061  0.1340
    1W        W57204  12.062   1.994   1.488  0.0742 -0.3236 -0.1305
    1W        W57205   5.826   8.299   3.243  0.1195 -0.0650 -0.1195
    1W        W57206  18.637  25.314   2.103  0.1369 -0.1335 -0.1442
    1W        W57207  27.753   5.053   3.106 -0.0431 -0.2099 -0.0585
    1W        W57208  19.754  22.229   1.548 -0.0825  0.0045 -0.3207
    1W        W57209  14.280   2.874   2.380 -0.2533  0.1223  0.3031
    1W        W57210  13.308  16.707   8.934  0.1880 -0.0595  0.1109
    1W        W57211  12.659   6.152   3.963 -0.2032  0.0177 -0.1925
    1W        W57212  18.569   5.124   1.212 -0.1430  0.1038 -0.1433
    1W        W57213  14.298  22.810   6.823  0.2557 -0.0917 -0.0139
    1W        W57214  19.846  25.348   1.498  0.3237  0.0689 -0.2567
    1W        W57215   5.117   2.051   0.268  0.2870  0.0725  0.2219
    1W        W57216  23.856  26.381   0.065  0.0652  0.1518  0.1872
    1W        W57217  28.689   2.001   6.442 -0.2255 -0.0252 -0.2588
    1W        W57218   5.962   9.868   8.268 -0.0614  0.2946  0.3745
    1W        W57219  22.612  14.287   6.982 -0.2764 -0.1457 -0.3311
    1W        W57220   2.837  13.663   0.021  0.2180 -0.1347  0.1656
    1W        W57221  16.140   3.330   1.344  0.3984 -0.2237 -0.0161
    1W        W57222  14.855   3.873   3.085 -0.0820  0.1666  0.0046
    1W        W57223  19.991   3.804   1.293 -0.0058  0.1858 -0.0523
    1W        W57224  19.425  21.597   2.136  0.0460  0.4287 -0.0866
    1W        W57225  28.757   9.818   6.175  0.1104  0.5195  0.0880
    1W        W57226   8.431   0.197   2.206  0.1244 -0.1826 -0.3437
    1W        W57227  14.866  14.182   8.090 -0.2240  0.1792 -0.2828
    1W        W57228   5.198   7.422   1.455  0.3408  0.2391  0.3347
    1W        W57229  24.626  10.719   8.316  0.2644 -0.0312 -0.2948
    1W        W57230  20.762  17.521   6.580  0.0439 -0.3886 -0.0110
    1W        W57231  15.126  11.424   2.451 -0.0199 -0.0765  0.1043
    1W        W57232  11.209  26.402   1.159  0.0709  0.0434 -0.1130
    1W        W57233   0.111   5.938   6.801  0.1227 -0.3862 -0.1021
    1W        W57234   4.146   3.124   9.207  0.0919 -0.4102 -0.0295
    1W        W57235  27.149   5.718   7.156  0.3351 -0.1064 -0.1013
    1W        W57236  28.806  20.590   1.716 -0.2235 -0.0231 -0.0654
    1W        W57237  29.070  21.093   1.608  0.0089  0.1732  0.0635
    1W        W57238  23.796   3.225   8.951 -0.3423  0.2947  0.0681
    1W        W57239   0.349   9.506   7.174 -0.0069 -0.0450 -0.2085
    1W        W57240  11.777   2.372   8.326 -0.0442 -0.0369  0.2156
    1W        W57241  29.056  12.710   6.733 -0.0172  0.1018 -0.2186
    1W        W57242  28.321   1.058   0.316 -0.1174  0.4570  0.4892
    1W        W57243  23.070  19.100   7.586 -0.0508  0.0331  0.0204
    1W        W57244   2.156  24.225   7.829 -0.2205  0.1647 -0.1913
    1W        W57245  11.446   2.019   7.944  0.0345  0.0736 -0.1728
    1W        W57246  25.097   3.730   9.233  0.2259 -0.3019  0.0195
    1W        W57247  22.649  14.402   6.257 -0.2911 -0.0791  0.4219
    1W        W57248   8.151  18.179   8.442  0.1485  0.1318  0.0140
    1W        W57249  19.733   9.267   8.890  0.0345  0.0676  0.1791
    1W        W57250  13.619  12.882   1.486 -0.0071  0.1129 -0.2769
    1W        W57251  28.461  10.165   8.528 -0.0777 -0.1414  0.0562
    1W        W57252   2.495  13.456   9.044 -0.0440 -0.0454  0.1331
    1W        W57253  10.895   9.929   1.341  0.2374  0.1292  0.3626
    1W        W57254  14.099  25.937   0.983  0.1118 -0.1306 -0.0836
    1W        W57255   2.870   7.099   0.477 -0.0764  0.4444  0.0929
    1W        W57256  17.574  23.176   8.693 -0.0846 -0.3256  0.0215
    1W        W57257   1.386   3.437   3.299 -0.3162 -0.1507 -0.2096
    1W        W57258  22.986  26.488   6.298  0.2148  0.2342  0.0230
    1W        W57259  20.820   7.189   0.708  0.1965  0.1111  0.0705
    1W        W57260  19.890   3.824   8.175  0.1733  0.5290 -0.1477
    1W        W57261  11.197  26.243   9.123  0.0439 -0.2132 -0.1213
    1W        W57262   6.786  13.069   2.759 -0.2148 -0.1442 -0.1109
    1W        W57263  25.060   8.626   2.042 -0.0403 -0.0761 -0.0766
    1W        W57264  14.181   1.368   0.171 -0.1425  0.0666  0.0694
    1W        W57265   3.786  27.221   7.504 -0.0292 -0.1574  0.1510
    1W        W57266  28.689   0.641   0.526  0.2191 -0.1318  0.0792
    1W        W57267  22.005   2.783   9.254 -0.0432  0.1453 -0.2086
    1W        W57268  25.627  14.873   5.081  0.0130 -0.0769 -0.0383
    1W        W57269  11.226  24.808   7.541  0.0098 -0.0072  0.0621
    1W        W57270  18.261   4.948   1.563  0.0901  0.3923 -0.3213
    1W        W57271   0.208  29.544   2.693 -0.1860  0.1831  0.0772
    1W        W57272  21.933  26.561   6.471 -0.2089 -0.1255  0.1324
    1W        W57273   8.184  12.268   3.722  0.1876 -0.0702 -0.4065
    1W        W57274  28.261  23.371   6.864 -0.4593 -0.0586 -0.1302
    1W        W57275  17.202  18.858   0.354  0.0104 -0.1235 -0.2363
    1W        W57276  16.898   7.875   7.665  0.1883 -0.3585  0.3296
    1W        W57277   0.854   2.750   1.715 -0.2287  0.2765  0.0718
    1W        W57278  22.479  25.339   8.757 -0.2326 -0.2391 -0.0454
    1W        W57279   6.348  25.596   8.633  0.0584 -0.1039  0.3500
    1W        W57280   6.312   7.177   7.559 -0.0317 -0.1026 -0.0928
    1W        W57281   1.242  23.486   7.407 -0.2724  0.0236 -0.2767
    1W        W57282  25.627   4.753   7.765 -0.0392  0.1976 -0.0753
    1W        W57283   8.154   3.882   2.017  0.0548  0.3061  0.1398
    1W        W57284  20.418  15.898   9.241 -0.0992  0.3659  0.0614
    1W        W57285  20.232   7.920   7.673 -0.0264  0.2193 -0.2525
    1W        W57286  23.156  17.964   1.418  0.0275 -0.0990  0.0678
    1W        W57287  27.341  15.517   9.114 -0.1105  0.1072 -0.0466
    1W        W57288  29.068   6.051   7.416 -0.0275 -0.1049 -0.1423
    1W        W57289  20.622  13.193   0.815 -0.1821 -0.1192 -0.1008
    1W        W57290  15.692  24.015   7.288  0.0939  0.4326  0.0632
    1W        W57291   8.990   8.141   0.392 -0.1411 -0.2829 -0.2343
    1W        W57292   8.878  27.313   1.158  0.0929 -0.0120 -0.1295
    1W        W57293  25.113   8.784   7.045 -0.1866 -0.1801  0.0264
    1W        W57294   7.535   7.845   3.535  0.3574 -0.0412 -0.1841
    1W        W57295   5.996  13.764   1.502 -0.2107  0.2016  0.0178
    1W        W57296  30.077   1.354   3.408 -0.0135 -0.0946 -0.0259
    1W        W57297   9.945  16.332   1.792  0.0061 -0.2194 -0.0933
    1W        W57298  19.216   3.532   7.326 -0.3118 -0.0005 -0.2388
    1W        W57299   2.187  26.644   2.223  0.0718 -0.2186  0.0575
    1W        W57300  29.716   7.898   7.257  0.0050 -0.2067  0.1719
    1W        W57301  19.087  18.801   7.422  0.0374  0.3005  0.1656
    1W        W57302  15.652   5.931   8.360  0.1216  0.7017 -0.4122
    1W        W57303  10.003  15.953   7.308 -0.0672 -0.1332  0.1609
    1W        W57304   9.635  13.348   2.371 -0.0939  0.0764 -0.1260
    1W        W57305   2.203  23.967   8.500  0.1091 -0.0383 -0.0629
    1W        W57306   7.362   8.183   3.223  0.0464 -0.3595 -0.2949
    1W        W57307   2.611   3.915   2.817  0.2483  0.2871  0.1626
    1W        W57308  24.571  25.232   2.367  0.1642 -0.0808 -0.0219
    1W        W57309  10.531   1.184   8.486 -0.1214  0.4371  0.2150
    1W        W57310  23.473   9.295   7.953 -0.5443  0.4715  0.0653
    1W        W57311  18.242  15.679   1.512  0.2610  0.2816 -0.2032
    1W        W57312   7.706  15.261   1.907 -0.1016  0.3447  0.1492
    1W        W57313  22.376   5.116   1.968 -0.0338  0.0119  0.1728
    1W        W57314  12.280  27.741   8.574  0.0837 -0.0203 -0.3355
    1W        W57315  26.261   5.623   2.396 -0.0171 -0.0119 -0.0265
    1W        W57316  13.315  15.322   0.305  0.1385  0.0494  0.0526
    1W        W57317  24.152   3.667   7.598 -0.2291  0.0533 -0.0991
    1W        W57318  16.304  13.831   8.516 -0.1724  0.2310 -0.0706
    1W        W57319   2.315   4.968   7.410  0.1007 -0.1045  0.0174
    1W        W57320  17.316   1.559   8.302  0.0415  0.0789  0.0255
    1W        W57321  27.555   4.399   1.107 -0.2914 -0.3021  0.1229
    1W        W57322  17.083   0.308   2.998 -0.0116  0.1195  0.2627
    1W        W57323  14.473   5.911   8.897 -0.2288  0.2526 -0.0707
    1W        W57324   1.243  11.459   7.662 -0.0225 -0.2574 -0.0914
    1W        W57325   1.429   2.001   6.603  0.0342  0.4702  0.2200
    1W        W57326  11.636  23.240   8.065  0.1296  0.0333  0.0915
    1W        W57327   4.621  18.651   5.905 -0.2713 -0.0887  0.0254
    1W        W57328  17.583  11.691   6.804  0.1757 -0.0523 -0.0230
    1W        W57329  20.900  14.830   0.473 -0.1381 -0.0202 -0.0758
    1W        W57330   2.085   9.926   7.138  0.0735  0.1086  0.0861
    1W        W57331  19.597  27.995   9.386  0.3066 -0.2115  0.0797
    1W        W57332  19.889  17.107   9.356 -0.0433 -0.0090 -0.1079
    1W        W57333   3.241  24.558   7.558 -0.2725  0.2723 -0.2718
    1W        W57334   0.090  13.856   0.432  0.3310  0.0041  0.0849
    1W        W57335  26.738  10.940   9.390  0.1289  0.3265  0.3341
    1W        W57336  24.678  26.772   1.909  0.2934  0.0909 -0.0247
    1W        W57337  21.286  15.155   7.631  0.0629 -0.1341 -0.1578
    1W        W57338   2.202  26.952   6.605 -0.1280 -0.3461  0.0771
    1W        W57339  20.996  24.350   3.069 -0.1489  0.1027  0.0422
    1W        W57340  14.597  27.841   6.941  0.0236 -0.0710 -0.0273
    1W        W57341  17.099  21.918   7.338 -0.3455  0.0222  0.3963
    1W        W57342  26.594  23.697   0.747  0.0754  0.2439 -0.0572
    1W        W57343  13.314   9.158   2.247 -0.2215  0.0261  0.1995
    1W        W57344   0.176  23.270   2.377 -0.2196  0.1807  0.0144
    1W        W57345  21.844  12.228   0.973  0.0616 -0.1436 -0.1186
    1W        W57346  14.001   8.507   1.422 -0.0416  0.1447 -0.1202
    1W        W57347  20.240  17.367   8.825  0.1839 -0.0504  0.0051
    1W        W57348  26.242  29.990   6.818  0.2091  0.3377  0.0652
    1W        W57349  16.632   9.146   8.122  0.2511  0.1602  0.0191
    1W        W57350  15.972  21.737   8.742 -0.2794  0.2564 -0.0285
    1W        W57351   1.264   6.372   0.559 -0.2066 -0.2117 -0.1726
    1W        W57352  20.894  16.479   6.594 -0.0623  0.2446 -0.0484
    1W        W57353  20.953  22.900   6.572  0.3891 -0.4842  0.2587
    1W        W57354  10.826  14.164   8.709 -0.2170  0.0021 -0.0705
    1W        W57355   0.416  16.581   7.622 -0.2742 -0.0280 -0.0334
    1W        W57356  24.597  18.773   8.675 -0.0624 -0.1994  0.0750
    1W        W57357   2.684   9.997   0.088  0.2661 -0.0602  0.0937
    1W        W57358  12.132   7.920   0.787 -0.2392  0.0772 -0.0137
    1W        W57359   7.103  12.904   0.011 -0.0249 -0.2611 -0.3448
    1W        W57360  13.496  12.197   7.825  0.0620  0.1573  0.0562
    1W        W57361  19.267  10.435   7.714 -0.0813  0.1093  0.1356
    1W        W57362  21.685  21.345   0.804  0.0983 -0.1072 -0.1473
    1W        W57363   0.200  19.620   2.287  0.0557 -0.4545 -0.0691
    1W        W57364  11.961  20.330   7.596  0.1692 -0.1771  0.1326
    1W        W57365   4.419  28.002   1.539  0.0128  0.0684 -0.3947
    1W        W57366  21.500   5.529   9.194 -0.1002 -0.1990  0.5516
    1W        W57367  17.421  19.868   1.091 -0.1039 -0.0906 -0.1399
    1W        W57368  16.062  25.374   1.700  0.2967 -0.2808  0.1076
    1W        W57369  12.914  12.889   9.254  0.1252 -0.0096  0.0864
    1W        W57370  24.781  10.201   0.207  0.1880  0.0847 -0.0429
    1W        W57371  16.273  26.201   0.048  0.1729 -0.1168  0.0475
    1W        W57372  27.154   6.161   6.846 -0.1340  0.1658 -0.0556
    1W        W57373   4.690  14.909   1.648 -0.0122 -0.0844 -0.1520
    1W        W57374   7.227  10.830   0.551  0.2339 -0.1899  0.2787
    1W        W57375  19.561  17.200   6.489 -0.2956 -0.2615  0.2727
    1W        W57376  20.897  13.497   0.500 -0.1178  0.0011 -0.2535
    1W        W57377   0.716  29.769   2.329 -0.1017  0.0855  0.2225
    1W        W57378  19.569  27.063   8.888  0.1058 -0.5375  0.1962
    1W        W57379  10.540   4.157   2.578  0.4061  0.0738 -0.1724
    1W        W57380  14.200  19.437   7.342 -0.0974  0.1465  0.2383
    1W        W57381  27.276   5.435   0.530 -0.0501  0.0855 -0.0345
    1W        W57382  12.025  23.049   8.353  0.1999  0.1846  0.2834
    1W        W57383   3.433   1.084   8.285 -0.2415  0.3487  0.1049
    1W        W57384   6.900   2.058   0.570  0.0654  0.2231 -0.1459
    1W        W57385  12.506  23.240   0.754  0.1806  0.2967 -0.1586
    1W        W57386  25.462   4.630   2.144 -0.1104 -0.0428  0.2523
    1W        W57387  15.879  24.282   3.155  0.0059  0.0575 -0.4500
    1W        W57388  14.553  17.239   1.870 -0.2060 -0.4380 -0.0086
    1W        W57389  17.859   4.403   2.365  0.1923 -0.3938  0.0200
    1W        W57390  20.040  13.541   1.217 -0.0646 -0.2379 -0.0134
    1W        W57391   6.144  16.935   8.470  0.0108 -0.1502 -0.1506
    1W        W57392   9.099   7.295   2.691 -0.4261  0.0274  0.0713
    1W        W57393  12.418  15.553   8.026  0.3094 -0.1994  0.3187
    1W        W57394   3.263   0.121   2.972  0.1547 -0.0595 -0.3096
    1W        W57395  14.341   5.430   1.443  0.1811  0.1774  0.3687
    1W        W57396   8.530  16.074   0.647  0.3681  0.0123  0.1059
    1W        W57397   5.960  14.008   2.338 -0.1713 -0.0055  0.0711
    1W        W57398   8.368  15.608   2.394 -0.0468 -0.2361 -0.0133
    1W        W57399   0.060   1.780   1.025  0.2692  0.0895 -0.0785
    1W        W57400  15.145  27.567   8.699 -0.0218  0.0570 -0.1923
    1W        W57401  11.164  15.181   2.105  0.2612 -0.0608 -0.2455
    1W        W57402   3.065   6.543   0.489  0.2775 -0.0069  0.0489
    1W        W57403  26.080  11.654   2.056 -0.1075  0.0468 -0.2869
    1W        W57404  22.617   7.364   0.748 -0.2676  0.1897 -0.0407
    1W        W57405   9.330   8.472   3.161 -0.0968  0.2709 -0.0268
    1W        W57406  17.233   8.663   7.813  0.2036 -0.4685  0.1333
    1W        W57407  24.399  20.503   7.414  0.1341  0.2918 -0.2902
    1W        W57408   1.341  28.277   0.130 -0.0848 -0.0161 -0.0157
    1W        W57409   3.027  28.873   7.092  0.2849  0.0561  0.1398
    1W        W57410  24.629  18.728   1.190  0.2343  0.1316  0.0598
    1W        W57411   5.097   6.535   3.009 -0.4081 -0.2818  0.1475
    1W        W57412  17.130   0.034   3.460  0.0245 -0.0062  0.0488
    1W        W57413  14.485   1.508   0.529  0.4067 -0.1285  0.1046
    1W        W57414  29.810  11.496   8.944  0.0463  0.1915  0.1193
    1W        W57415  27.722   7.833   7.661  0.2387  0.0561 -0.1469
    1W        W57416  14.488  27.855   0.565 -0.2869  0.2325  0.2739
    1W        W57417  10.450  17.323   7.256 -0.2141 -0.1376  0.0241
    1W        W57418   9.695   2.440   7.610  0.0847  0.1929  0.2096
    1W        W57419  15.383  16.761   8.842 -0.0665 -0.0756 -0.2648
    1W        W57420  24.776  20.181   1.599 -0.0322  0.0453  0.0261
    1W        W57421   0.532  25.390   6.428 -0.2321  0.1334 -0.1182
    1W        W57422  17.076  14.706   6.884 -0.3167  0.1079  0.1761
    1W        W57423  17.297   6.478   0.761 -0.2106  0.0157  0.0826
    1W        W57424  23.774   8.716   7.647  0.0493 -0.2516 -0.0353
    1W        W57425   7.319   9.005   2.761 -0.4468 -0.4130 -0.0188
    1W        W57426  16.802  17.884   8.738  0.1878 -0.1200 -0.1288
    1W        W57427   7.955   2.002   0.810 -0.2474  0.1393  0.0462
    1W        W57428  24.266  26.333   8.562 -0.1867 -0.1205 -0.0038
    1W        W57429   1.482  13.011   7.027 -0.3659 -0.0836 -0.1285
    1W        W57430   1.817   9.533   6.782 -0.0715 -0.0049  0.0508
    1W        W57431  22.859   2.732   7.529  0.0157  0.0206  0.0817
    1W        W57432  18.660  25.484   0.892 -0.1638  0.1910 -0.2401
    1W        W57433   3.403  20.978   1.155 -0.0186  0.2345 -0.0207
    1W        W57434  16.987  26.561   1.112 -0.1588 -0.0316  0.1556
    1W        W57435  27.265  22.492   0.141  0.0324  0.1187 -0.1872
    1W        W57436  10.439   5.421   2.513 -0.2611 -0.1536 -0.3636
    1W        W57437  25.795  20.694   6.322  0.1423  0.0282  0.0048
    1W        W57438   6.496  27.804   8.305 -0.0022 -0.1495  0.1698
    1W        W57439  10.380   3.249   0.043 -0.1919  0.0613  0.1851
    1W        W57440  28.142   4.727   1.832 -0.0025 -0.0251  0.0436
    1W        W57441  18.828  22.308   7.644  0.3184 -0.0296 -0.0535
    1W        W57442   3.194  20.448   7.275 -0.1948 -0.0794  0.0153
    1W        W57443   5.246  16.866   8.502 -0.2800 -0.0050  0.3150
    1W        W57444   7.246  29.790   0.534  0.0169 -0.3167  0.2644
    1W        W57445  23.283   6.669   8.446  0.1557  0.2103 -0.2365
    1W        W57446  26.772  15.094   5.982  0.2168 -0.2135 -0.1237
    1W        W57447  10.639  27.596   1.637 -0.1266  0.0444  0.0247
    1W        W57448  18.543   0.078   1.866 -0.1135  0.1206 -0.2103
    1W        W57449  27.979  26.582   8.570  0.1016  0.2130 -0.1644
    1W        W57450  11.417  10.396   3.159  0.3045 -0.1550  0.0278
    1W        W57451  15.905   1.264   7.242 -0.1207 -0.2512  0.1560
    1W        W57452   8.668   0.457   0.399 -0.2406  0.0320  0.0587
    1W        W57453  15.525  27.804   9.028  0.0727  0.1069  0.2277
    1W        W57454   0.780  26.389   0.782 -0.0892  0.1368  0.0021
    1W        W57455  28.336  24.980   7.641 -0.2440  0.2943  0.0990
    1W        W57456   8.540  26.308   0.468 -0.0029  0.2474 -0.1237
    1W        W57457  28.391   4.869   7.442 -0.2989  0.3518 -0.2463
    1W        W57458   8.607   1.302   7.851 -0.2504 -0.0477  0.1365
    1W        W57459   8.505  15.036   8.267 -0.2284 -0.2690  0.0886
    1W        W57460  10.056  12.706   8.386 -0.2335 -0.2840 -0.2433
    1W        W57461  27.473  14.971   0.691  0.0267  0.2309  0.2276
    1W        W57462   6.300   9.478   1.355  0.2828 -0.0756  0.0403
    1W        W57463  10.181  10.391   0.141 -0.4576 -0.0778  0.1328
    1W        W57464   7.262  24.137   8.822 -0.0047  0.0002  0.0082
    1W        W57465   1.312  23.800   6.732 -0.2496 -0.0309 -0.0937
    1W        W57466  26.668  19.892   1.596  0.1125 -0.2610 -0.0339
    1W        W57467  11.031   2.900   7.818  0.0603  0.0444 -0.0558
    1W        W57468  10.221  11.492   1.006 -0.1431 -0.0547  0.0955
    1W        W57469  21.675  17.323   1.417 -0.0798  0.1566  0.1604
    1W        W57470   9.932  21.044   8.807  0.1043  0.0103 -0.1305
    1W        W57471  10.104   2.530   8.326  0.0596  0.0121 -0.4137
    1W        W57472  28.795   7.298   2.036  0.0710  0.0976  0.1673
    1W        W57473  21.238  21.829   2.602  0.1353 -0.0397 -0.0673
    1W        W57474   4.484   7.098   1.011 -0.3107 -0.1503 -0.1137
    1W        W57475  15.197  21.762   1.803 -0.1080  0.3625  0.0519
    1W        W57476  29.290   6.695   7.548  0.2142 -0.1245  0.3017
    1W        W57477  27.580  21.778   8.442  0.3201  0.2465 -0.1780
    1W        W57478  18.124   7.769   7.346  0.0066  0.0311  0.1291
    1W        W57479  18.938  21.779   2.087  0.0161  0.1823 -0.2334
    1W        W57480   7.033  25.210   1.001  0.1848 -0.4020 -0.1982
    1W        W57481  21.326  18.347   0.276  0.4112 -0.2376  0.3364
    1W        W57482  25.030  18.510   0.332  0.0856 -0.0926  0.2951
    1W        W57483  15.624  21.788   0.147 -0.0693  0.1406  0.1304
    1W        W57484  29.957  18.290   7.132  0.1535  0.1321 -0.0762
    1W        W57485  21.270  15.651   0.266  0.2691  0.2600  0.1451
    1W        W57486  10.369  11.575   1.574 -0.2557  0.0877  0.1680
    1W        W57487  26.166   1.272   2.090 -0.3191  0.0440  0.0175
    1W        W57488   3.987  28.334   7.433 -0.1658 -0.0769 -0.0567
    1W        W57489   2.734  12.903   6.427  0.2607 -0.0371 -0.0175
    1W        W57490  21.140  27.649   1.688  0.1108 -0.0634  0.0886
    1W        W57491   5.210   2.453   1.525 -0.0913 -0.1546 -0.1172
    1W        W57492  27.138  11.002   5.816  0.1603 -0.0106  0.0419
    1W        W57493  19.305  25.754   2.795 -0.0685  0.0062  0.2116
    1W        W57494   4.312  24.463   0.224  0.2006  0.0990 -0.0646
    1W        W57495  11.464   7.610   9.350  0.1084 -0.0933 -0.0941
    1W        W57496  14.466   4.998   3.904  0.0958  0.3131 -0.1176
    1W        W57497  13.378  13.665   6.857 -0.1444 -0.0836  0.0713
    1W        W57498  15.922   5.886   2.184  0.0284 -0.1732 -0.1030
    1W        W57499  20.287  17.092   8.414  0.1244  0.0597  0.0276
    1W        W57500   8.232  27.467   8.679  0.0929 -0.1050 -0.0697
    1W        W57501   5.384   5.877   8.580 -0.1184  0.0509  0.1851
    1W        W57502  27.085  23.910   6.849  0.1461  0.0846 -0.0630
    1W        W57503   5.506   1.669   7.874  0.2359  0.4434  0.1738
    1W        W57504   9.403  21.495   9.075 -0.3801 -0.1685 -0.0396
    1W        W57505   0.900  20.984   2.129 -0.2531  0.0635 -0.1171
    1W        W57506   6.924  11.430   1.165  0.1271 -0.1641 -0.4291
    1W        W57507  15.173  29.016   7.502 -0.0347 -0.2390 -0.1900
    1W        W57508  12.648  27.987   0.643 -0.0643  0.1712 -0.0331
    1W        W57509  27.601  10.169   6.761  0.0714  0.1746  0.2911
    1W        W57510  16.995   4.078   8.044 -0.0838  0.0582  0.2818
    1W        W57511  14.253   7.395   0.796  0.0200  0.3310  0.2215
    1W        W57512  16.883  23.644   1.352 -0.0961 -0.2290 -0.0462
    1W        W57513  11.127  28.268   0.233  0.4056  0.0633 -0.1372
    1W        W57514  10.570  14.371   7.362  0.0165 -0.1125  0.1331
    1W        W57515  19.778   9.787   7.925 -0.1115  0.2247  0.1621
    1W        W57516  26.819  21.066   2.394  0.1140 -0.0656 -0.2135
    1W        W57517  24.444  13.735   7.686 -0.0804 -0.0601  0.1462
    1W        W57518  25.522  16.531   0.630 -0.2402 -0.2766 -0.0005
    1W        W57519  21.415  10.872   0.445  0.1609 -0.2992 -0.0795
    1W        W57520  17.278  28.436   7.607  0.1180  0.1859  0.0260
    1W        W57521  22.493  24.883   3.268  0.1390 -0.0673 -0.0763
    1W        W57522  29.224  18.613   7.634 -0.3359 -0.0955  0.3355
    1W        W57523  21.504  14.071   2.327 -0.1151  0.1974 -0.1064
    1W        W57524  27.045  14.583   8.038  0.0314  0.1092 -0.2992
    1W        W57525   6.520  29.168   0.711  0.0342  0.0686 -0.0739
    1W        W57526  10.898  23.775   7.265  0.1544 -0.0130  0.2384
    1W        W57527  28.825   5.829   8.333  0.0736 -0.1647  0.0906
    1W        W57528  16.691   0.958   8.068  0.1312 -0.1446  0.3856
    1W        W57529  24.836   9.676   1.842  0.1874 -0.1098 -0.2471
    1W        W57530  17.213  15.881   8.308  0.2663  0.1778 -0.1954
    1W        W57531  24.892  28.135   7.979 -0.3472  0.2596 -0.0921
    1W        W57532  22.709  29.554   6.261  0.5368  0.0687 -0.1608
    1W        W57533   7.820  27.405   0.205  0.2538  0.0230  0.0398
    1W        W57534   7.846  22.128   5.777 -0.0613 -0.3789  0.0516
    1W        W57535  25.086  16.647   2.499 -0.0258 -0.3975 -0.2400
    1W        W57536   1.080  25.834   8.994 -0.0914 -0.0932  0.1668
    1W        W57537  10.097   5.570   8.271 -0.0061 -0.1413  0.4947
    1W        W57538  26.299   6.483   2.050  0.0530 -0.0185 -0.0943
    1W        W57539  16.714   1.324   0.629  0.0637  0.1055 -0.3323
    1W        W57540  17.718  18.191   0.905 -0.0982  0.2259  0.0950
    1W        W57541  25.448   2.471   2.381  0.2635  0.1215  0.3460
    1W        W57542  25.651  12.873   8.054 -0.1761  0.0357  0.0470
    1W        W57543  17.164   3.829   2.698 -0.0970 -0.1702  0.0998
    1W        W57544  23.597  17.822   1.153 -0.0745  0.0954 -0.1375
    1W        W57545   2.243  25.433   5.763 -0.0722 -0.3410  0.4215
    1W        W57546  15.690  20.819   0.938 -0.0562  0.0291 -0.1228
    1W        W57547   6.064  22.198   7.514  0.0013 -0.1693  0.1263
    1W        W57548  18.999   2.577   2.176  0.3192  0.4447 -0.4173
    1W        W57549  28.727   4.938   2.514  0.1337 -0.2047  0.4761
    1W        W57550   8.553  28.611   7.162 -0.1105  0.1252  0.2697
    1W        W57551  10.895  13.618   6.851  0.1939 -0.0325 -0.1257
    1W        W57552   4.925  20.532   9.163 -0.1697 -0.0854  0.4353
    1W        W57553  23.271  20.091   8.514  0.1684  0.0291 -0.3665
    1W        W57554  26.689  22.769   7.128  0.2548  0.2086  0.2808
    1W        W57555  14.500  23.479   9.101  0.3012  0.1072  0.2891
    1W        W57556   2.627   9.013   6.913 -0.0094  0.1849 -0.1110
    1W        W57557   5.996  19.445   9.120  0.0505 -0.2483 -0.0636
    1W        W57558   4.278  20.901   4.777  0.2750 -0.0472  0.3428
    1W        W57559  12.185   9.130   8.657  0.0767  0.3000 -0.1791
    1W        W57560   7.524  25.311   1.733  0.1493 -0.2032 -0.0037
    1W        W57561  28.586  15.720   0.803  0.0763 -0.0345  0.0096
    1W        W57562   8.672  21.448   6.042  0.0717  0.3975 -0.0147
    1W        W57563  21.163  27.570   6.798  0.0874 -0.1771 -0.0052
    1W        W57564  23.059  20.789   6.848 -0.1165 -0.3929  0.1315
    1W        W57565   9.570  22.758   7.773  0.2715  0.0498  0.2158
    1W        W57566  12.314   5.045   0.480  0.0708  0.0631 -0.1623
    1W        W57567   4.985  18.691   7.795 -0.0567 -0.2254 -0.0263
    1W        W57568   8.275  15.007   1.206 -0.1083 -0.0615 -0.3396
    1W        W57569  17.670  10.842   8.913  0.3793  0.2026 -0.3252
    1W        W57570  19.527  16.725   6.576 -0.1865 -0.3106 -0.0442
    1W        W57571  27.990   4.746   5.878  0.0944  0.3897 -0.0954
    1W        W57572  12.964   4.700   7.750 -0.1099 -0.2152  0.1205
    1W        W57573  15.885  25.020   8.261  0.0249 -0.3468  0.0219
    1W        W57574  13.056  11.189   7.809  0.1511  0.2651 -0.1447
    1W        W57575  27.988  18.196   6.631 -0.0419 -0.2133  0.3979
    1W        W57576   1.429  21.393   1.318  0.0523 -0.1422  0.1612
    1W        W57577  21.576  18.089   0.681  0.2304  0.4592  0.0296
    1W        W57578   5.983   1.272   2.467  0.3964  0.0500 -0.0151
    1W        W57579  10.631   7.187   8.512  0.0495 -0.1195 -0.2701
    1W        W57580  12.890  28.873   2.725  0.2566  0.1505 -0.0714
    1W        W57581  23.759  12.995   8.485  0.4692  0.3066  0.2819
    1W        W57582  26.609  25.272   7.689 -0.1882 -0.1678  0.0497
    1W        W57583  25.999  13.036   7.676 -0.1725  0.3417 -0.0140
    1W        W57584   6.387   7.266   9.242  0.2230 -0.1480 -0.2444
    1W        W57585  19.788  26.678   2.819 -0.2502  0.2829 -0.3831
    1W        W57586  23.622   6.937   7.536 -0.3029 -0.1730  0.0406
    1W        W57587   8.225  17.635   7.574 -0.2848  0.2272  0.0563
    1W        W57588  24.396  17.503   8.928 -0.2541  0.3029  0.2761
    1W        W57589  12.909   5.027   1.970 -0.0378 -0.1589  0.0880
    1W        W57590  10.521  23.636   0.277 -0.0896  0.4125  0.2165
    1W        W57591  21.116  10.015   0.872 -0.0040 -0.0449 -0.0480
    1W        W57592  28.185   6.495   1.329 -0.0076  0.1184  0.0945
    1W        W57593  26.443  22.290   7.986  0.0896  0.0374 -0.0586
    1W        W57594  10.139   4.981   8.990 -0.0767  0.2147 -0.1856
    1W        W57595  15.735  19.640   1.748 -0.0592  0.0912  0.1986
    1W        W57596  20.508   8.277   1.458  0.3312  0.1467 -0.0265
    1W        W57597  21.302  11.863   6.907  0.0446 -0.4300  0.1854
    1W        W57598  22.909   7.055   0.990  0.0190  0.1612 -0.0778
    1W        W57599   1.555   9.395   0.609  0.1517  0.0507  0.0409
    1W        W57600  22.403   6.989   2.304  0.0012  0.3659 -0.0497
    1W        W57601  26.322   6.410   0.234 -0.0946 -0.1988  0.0480
    1W        W57602   6.554  17.100   1.935 -0.2100 -0.1094 -0.2389
    1W        W57603  13.366  18.525   8.262  0.1604 -0.0485  0.2264
    1W        W57604   1.898  25.862   0.260  0.0469 -0.1151 -0.1117
    1W        W57605  23.276   6.372   0.367 -0.1094  0.0808  0.0424
    1W        W57606  22.561   9.952   0.954  0.2190  0.0912 -0.3102
    1W        W57607  17.674  29.074   7.294 -0.0426 -0.1576 -0.4356
    1W        W57608  23.035  19.823   2.031  0.1702 -0.0682 -0.1899
    1W        W57609  18.749  21.284   6.081 -0.3196 -0.0564  0.2314
    1W        W57610  27.909  28.260   1.808 -0.1478 -0.0627 -0.0676
    1W        W57611  10.176  25.937   6.466 -0.0321 -0.4827  0.3331
    1W        W57612   8.184  16.432   1.237  0.0719 -0.1773 -0.1832
    1W        W57613   2.272  23.326   9.291  0.5942 -0.0312  0.1339
    1W        W57614  11.096   0.337   7.925  0.0364  0.0463 -0.1071
    1W        W57615  15.350  19.181   8.132  0.2271  0.1857 -0.1313
    1W        W57616  10.608   8.817   2.902  0.0280 -0.2376  0.1369
    1W        W57617  15.334  12.968   2.507  0.0340 -0.0233  0.1423
    1W        W57618   2.033  20.220   0.072 -0.1347 -0.1230 -0.5241
    1W        W57619  12.486  25.504   8.687  0.0926 -0.0158  0.0270
    1W        W57620  14.728   6.037   8.013 -0.2988 -0.0489  0.1648
    1W        W57621  12.099  12.175   1.894 -0.1372  0.1542  0.4048
    1W        W57622   4.746  19.687   7.162 -0.2184  0.2235 -0.0044
    1W        W57623  16.926  16.171   8.643 -0.0027  0.2038  0.0004
    1W        W57624   5.578  22.513   8.698  0.1122 -0.1640  0.1155
    1W        W57625   5.067  11.510   1.656 -0.1176 -0.0323 -0.0311
    1W        W57626  21.642   9.486   7.094  0.2689  0.0999 -0.0618
    1W        W57627   1.356   6.154   2.289  0.0209 -0.1682  0.1281
    1W        W57628   0.080   3.232   1.501 -0.2072  0.1947  0.0359
    1W        W57629  13.515  27.193   0.367 -0.1843  0.3070  0.0233
    1W        W57630  15.433   7.518   2.604  0.4403 -0.2035  0.1278
    1W        W57631   1.514  17.312   0.272 -0.2432  0.1020 -0.1587
    1W        W57632   7.784  28.872   8.587 -0.3326 -0.0772  0.1747
    1W        W57633  25.544   4.133   9.153  0.6098  0.1241  0.1137
    1W        W57634  21.695  21.800   0.048  0.3455 -0.2473  0.1601
    1W        W57635  26.279  11.071   8.189 -0.2085 -0.1363 -0.0144
    1W        W57636   6.058  10.471   8.168  0.2684  0.0871  0.1124
    1W        W57637   0.295  24.905   7.041 -0.1133 -0.0621 -0.0497
    1W        W57638   7.930  15.608   7.936  0.1037 -0.0539 -0.3227
    1W        W57639  28.960   4.921   1.143 -0.1302  0.1945  0.0524
    1W        W57640  12.697  15.488   8.769 -0.2931 -0.0061 -0.0007
    1W        W57641   6.180  13.574   0.745 -0.3287 -0.0705 -0.2061
    1W        W57642   8.999  18.041   6.622  0.0232 -0.1405 -0.2416
    1W        W57643  22.325  19.300   0.375 -0.1479 -0.6110  0.0101
    1W        W57644  15.367  14.132   0.930 -0.1467  0.2437  0.0644
    1W        W57645  11.084  25.829   0.103  0.1061 -0.1035 -0.0398
    1W        W57646  21.137   9.110   8.214  0.1251  0.0155  0.0786
    1W        W57647  12.435   3.737   2.803 -0.0939 -0.3158 -0.0741
    1W        W57648  30.084  20.115   0.340 -0.5566  0.1952 -0.0851
    1W        W57649  20.114  11.060   7.370 -0.0915 -0.1944  0.1947
    1W        W57650   5.216  19.326   5.158 -0.0868  0.3027 -0.2267
    1W        W57651  11.557  28.208   8.749  0.3666 -0.2431  0.0509
    1W        W57652   5.116  26.186   6.806 -0.0183  0.1156  0.2644
    1W        W57653  25.973  16.220   8.871  0.1682 -0.3196 -0.1972
    1W        W57654  15.842  27.980   0.433  0.0903 -0.1885  0.1791
    1W        W57655   5.729  10.848   8.152 -0.1176 -0.4013 -0.3049
    1W        W57656   9.932  17.658   1.860 -0.0242  0.2926 -0.0419
    1W        W57657  10.846  21.135   1.679 -0.2280  0.0608 -0.3260
    1W        W57658   0.837   5.052   1.710 -0.2315 -0.0491 -0.2647
    1W        W57659  10.514  18.710   8.069 -0.0218 -0.1749 -0.0351
    1W        W57660   4.863  27.654   9.151  0.1649 -0.0932 -0.1065
    1W        W57661  19.207   4.718   0.135  0.0509  0.2610 -0.0592
    1W        W57662   2.340   9.115   0.353  0.1163  0.1009 -0.0703
    1W        W57663  29.078  27.632   7.164 -0.3529  0.1683  0.0921
    1W        W57664   5.967   0.611   7.719  0.0978  0.0874  0.1589
    1W        W57665   0.426  11.194   2.809  0.0028  0.1738  0.1176
    1W        W57666  10.625  24.510   0.433  0.2974  0.0948  0.2190
    1W        W57667  13.320  18.477   0.516 -0.1495 -0.2043  0.0535
    1W        W57668  24.585  11.587   1.544  0.1015  0.1231 -0.1034
    1W        W57669  27.827   2.981   6.799  0.0992  0.0407  0.0178
    1W        W57670   2.070  12.277   6.093 -0.1170 -0.1297  0.1434
    1W        W57671   1.075  10.958   7.830  0.1787 -0.1480  0.1210
    1W        W57672  10.444  20.152   8.684 -0.1937 -0.0809  0.1423
    1W        W57673  16.108  18.507   6.710  0.2246  0.0751 -0.3025
    1W        W57674   2.541  25.168   1.329 -0.1033 -0.0693 -0.0243
    1W        W57675  24.007  12.713   1.039 -0.3121 -0.2769 -0.0011
    1W        W57676  16.611   5.114   8.368  0.0330  0.0522 -0.2030
    1W        W57677  12.429  11.068   2.740  0.3656  0.1030 -0.2058
    1W        W57678   6.052  28.996   0.935  0.3523 -0.1934 -0.0936
    1W        W57679  23.863  21.530   0.591  0.2611  0.0881 -0.0858
    1W        W57680  26.680  25.399   6.824  0.2651  0.0141  0.2210
    1W        W57681  15.242   6.509   2.656  0.1982 -0.2531  0.0435
    1W        W57682  29.777  18.807   0.488 -0.1148  0.3111 -0.3486
    1W        W57683   7.932  14.106   1.833 -0.0184 -0.0682 -0.0752
    1W        W57684  26.492  13.423   6.812 -0.0110 -0.2804  0.0003
    1W        W57685  18.795  20.700   1.142 -0.2982 -0.0088  0.0199
    1W        W57686  25.465  30.054   9.118  0.0304  0.2034 -0.0430
    1W        W57687  29.722  23.342   8.121 -0.2121  0.1110  0.0900
    1W        W57688  10.852   1.870   9.380  0.0596 -0.3440 -0.0396
    1W        W57689  13.603  21.046   2.192 -0.1762  0.2038 -0.0194
    1W        W57690  20.236  22.946   9.134 -0.2824 -0.0805  0.1889
    1W        W57691  17.791   2.262   2.601 -0.0193  0.1397  0.0654
    1W        W57692   9.165  23.006   0.883  0.2386  0.0574 -0.1490
    1W        W57693   8.995   1.708   0.006  0.2595  0.2730 -0.0079
    1W        W57694  21.422   5.136   1.825 -0.1011  0.0428 -0.0578
    1W        W57695  14.905  14.671   1.459 -0.2283  0.2525 -0.3057
    1W        W57696  10.639  14.350   1.190  0.0524  0.0860  0.0294
    1W        W57697   0.170  23.041   6.392  0.0037  0.1027 -0.0991
    1W        W57698  15.878  26.056   3.120  0.2222 -0.0440 -0.1760
    1W        W57699   4.401  26.260   2.333 -0.2614  0.0447 -0.4591
    1W        W57700  12.651  10.193   1.002  0.1915  0.0585 -0.0431
    1W        W57701  30.061  26.460   9.404  0.0182 -0.3065  0.0646
    1W        W57702  20.409  23.829   8.440 -0.2457 -0.1642 -0.0118
    1W        W57703  28.140   9.295   1.312 -0.0588 -0.1546 -0.0459
    1W        W57704  25.223   0.071   1.522  0.3384 -0.0105 -0.1244
    1W        W57705   6.912   9.735   1.763 -0.0577  0.2591  0.0486
    1W        W57706   9.156  14.661   0.042  0.3602  0.0972 -0.1266
    1W        W57707  21.111   6.859   0.450  0.0673 -0.0472  0.1135
    1W        W57708  27.370  29.390   8.542 -0.3032  0.0595 -0.0920
    1W        W57709  22.910   6.912   8.128  0.0748 -0.1519  0.0931
    1W        W57710  28.961   0.847   7.605  0.2957  0.1186  0.1943
    1W        W57711  30.053  19.017   0.070 -0.1814  0.0930 -0.1893
    1W        W57712  10.281  23.822   9.111 -0.0875  0.1478  0.0867
    1W        W57713  18.923   3.839   7.087  0.0616 -0.0572 -0.2184
    1W        W57714  18.521  29.500   9.342 -0.2048 -0.3451 -0.0274
    1W        W57715  15.267   2.495   7.324 -0.1511 -0.0918 -0.0638
    1W        W57716   7.652   3.561   7.674  0.1909  0.0692 -0.1288
    1W        W57717  22.586   8.420   8.860 -0.1925  0.0708  0.0417
    1W        W57718  25.643  11.700   1.558  0.1393 -0.0725  0.2469
    1W        W57719  26.296   7.790   1.760 -0.1623  0.3124 -0.0047
    1W        W57720   4.033   1.777   0.135 -0.0238  0.0706 -0.2033
    1W        W57721  25.845  13.967   8.145 -0.0118 -0.2064 -0.0076
    1W        W57722  27.356  17.879   5.913  0.0764 -0.1336 -0.0551
    1W        W57723   1.502   4.865   0.502  0.0891 -0.1181  0.0390
    1W        W57724  17.336   2.427   7.251  0.0098  0.2656  0.2184
    1W        W57725  28.775   1.447   9.388  0.1365  0.0956  0.1976
    1W        W57726  29.658  17.981   8.914 -0.0383  0.2545  0.0874
    1W        W57727  23.284  17.712   0.764 -0.1398  0.1137 -0.0566
    1W        W57728   5.211   0.865   3.531  0.1541 -0.0150 -0.3155
    1W        W57729  25.577   0.192   1.971 -0.1521  0.1137 -0.0233
    1W        W57730  26.319  23.145   6.999 -0.3634  0.0796  0.0587
    1W        W57731   8.414  22.415   9.139 -0.0814 -0.2872 -0.0402
    1W        W57732  14.617  12.905   1.659  0.0618 -0.0505 -0.2129
    1W        W57733  13.517   2.742   2.154 -0.1851  0.0926 -0.0608
    1W        W57734  21.121   5.826   2.281  0.0400  0.3029  0.2063
    1W        W57735   4.587  22.804   8.368 -0.2492  0.1130  0.2633
    1W        W57736   3.057  26.294   1.599 -0.0028  0.1567 -0.0502
    1W        W57737  21.689  19.864   7.534 -0.1078 -0.0647 -0.2377
    1W        W57738   9.236  22.435   1.058  0.2950 -0.1939  0.0355
    1W        W57739  26.957  27.927   1.493 -0.1064 -0.0518  0.2624
    1W        W57740   0.322  22.848   5.414  0.0970 -0.1989  0.1707
    1W        W57741   7.435  29.058   7.220 -0.2239 -0.2596 -0.1868
    1W        W57742  29.071   8.233   8.101  0.0572  0.2309  0.4136
    1W        W57743   5.628   1.991   3.170 -0.2449  0.0941  0.0198
    1W        W57744   3.037  19.790   5.581  0.0230 -0.2358  0.3101
    1W        W57745  15.600  27.677   1.996  0.0541  0.1652 -0.0097
    1W        W57746   7.735   8.835   8.428  0.0167  0.2057  0.0937
    1W        W57747  27.399   0.694   1.717 -0.2718 -0.0060 -0.1107
    1W        W57748  18.771  22.664   0.439 -0.1367 -0.0515  0.1290
    1W        W57749  10.393  24.752   0.821 -0.2045 -0.1661  0.3447
    1W        W57750   5.433   4.986   0.456  0.1199  0.2026 -0.1699
    1W        W57751  15.044  14.845   0.482  0.1708  0.0304  0.2358
    1W        W57752  25.927  13.175   6.151  0.0232  0.4359 -0.0744
    1W        W57753  12.466  14.999   8.646  0.1892 -0.0718  0.3972
    1W        W57754  24.828  27.875   6.997  0.3613  0.1046  0.0675
    1W        W57755  14.380  28.389   0.685  0.0970 -0.1263 -0.2914
    1W        W57756   3.735   7.018   7.930 -0.1799 -0.1509  0.1035
    1W        W57757   1.795  10.224   7.404  0.1868  0.1666  0.0988
    1W        W57758  28.096  23.455   6.376  0.0716  0.3467 -0.1831
    1W        W57759  17.125  25.099   9.110  0.1597  0.1156  0.0190
    1W        W57760   3.225  28.681   8.072  0.1099 -0.0610 -0.0821
    1W        W57761  21.959   3.046   1.714  0.1685  0.0981 -0.0308
    1W        W57762   1.796   0.376   8.800  0.2147 -0.1955  0.0033
    1W        W57763  12.943  23.559   7.689 -0.3094  0.1198 -0.1999
    1W        W57764  19.183  15.797   2.275 -0.2104  0.0544 -0.1052
    1W        W57765  25.794   2.691   0.771  0.3163 -0.2546  0.3130
    1W        W57766  20.782  26.112   8.390 -0.0100 -0.0550 -0.2981
    1W        W57767  18.115  23.076   8.085 -0.1463 -0.1918  0.1475
    1W        W57768   0.575  21.155   8.937  0.2322 -0.1653  0.2053
    1W        W57769  29.758   6.320   1.526  0.1337 -0.1167  0.1874
    1W        W57770   1.547  24.448   6.275  0.0570  0.0844 -0.1732
    1W        W57771   6.851  27.412   0.117  0.1070 -0.0760  0.2873
    1W        W57772   4.178   2.048   7.995  0.1636  0.1463 -0.1195
    1W        W57773  10.782   4.298   7.646  0.1421 -0.0533  0.5151
    1W        W57774  26.919  25.126   9.285  0.2564  0.2151 -0.0053
    1W        W57775   9.870  30.050   1.977 -0.2653 -0.0415  0.0967
    1W        W57776   6.418  27.290   8.378 -0.4143 -0.0575  0.1420
    1W        W57777   4.520  21.922   7.080  0.2173 -0.0356  0.4030
    1W        W57778  27.213   9.949   0.899 -0.0865 -0.1681  0.2139
    1W        W57779  12.108  19.392   1.943  0.1394 -0.2625  0.0458
    1W        W57780  25.575  12.844   5.882  0.0238  0.4283  0.0083
    1W        W57781  17.986  16.100   7.100  0.3094 -0.0010  0.2317
    1W        W57782   7.530   0.934   8.319  0.2700 -0.0350 -0.2763
    1W        W57783  20.554  11.817   0.505 -0.1384  0.1612 -0.1137
    1W        W57784  24.350   6.483   7.888  0.0718 -0.0063 -0.1054
    1W        W57785  28.536  25.356   1.925 -0.0651  0.0497  0.4698
    1W        W57786  30.088   0.260   9.386 -0.3409 -0.0738  0.2260
    1W        W57787   0.662   3.105   1.994  0.1351  0.0619 -0.2938
    1W        W57788  11.970  21.881   7.908 -0.0021 -0.0639 -0.0132
    1W        W57789   4.620  19.522   7.606 -0.1178  0.1031 -0.0822
    1W        W57790  27.945  12.035   1.738 -0.6097  0.2494  0.1954
    1W        W57791   1.501  19.418   1.616 -0.1032 -0.1120 -0.0497
    1W        W57792   1.726  25.434   7.550 -0.4365 -0.0694 -0.0249
    1W        W57793  18.832   1.817   3.771  0.0580 -0.1018  0.0646
    1W        W57794   5.881  15.789   0.164 -0.1429 -0.1014  0.0163
    1W        W57795  28.836   4.427   1.099 -0.1045  0.3550 -0.2540
    1W        W57796  11.541   9.354   0.438  0.2377 -0.0080 -0.3161
    1W        W57797  20.779  16.262   9.154  0.0476  0.2199 -0.1579
    1W        W57798  11.882   0.568   3.726 -0.1491 -0.3534 -0.0231
    1W        W57799   7.691  14.568   8.817 -0.2026 -0.0406 -0.1236
    1W        W57800  23.778   6.669   1.017  0.0379 -0.2468  0.3419
    1W        W57801  16.742   2.291   8.433  0.2375 -0.2595  0.0512
    1W        W57802  19.201   2.453   8.076  0.0209  0.3742  0.0329
    1W        W57803   0.347  17.250   0.569  0.3685  0.0572  0.1705
    1W        W57804  22.861  17.069   8.009 -0.0804 -0.4602 -0.2052
    1W        W57805  19.478   4.387   1.952  0.2434  0.0905 -0.2761
    1W        W57806   8.366  23.447   7.166 -0.1334 -0.0287  0.0451
    1W        W57807  20.927   9.249   8.646 -0.2411 -0.0656 -0.3039
    1W        W57808  19.093  17.945   0.823 -0.0470  0.0578 -0.0200
    1W        W57809  10.253   2.664   3.318 -0.1053  0.1467 -0.0213
    1W        W57810  16.469   3.084   1.575 -0.1196 -0.0089 -0.0460
    1W        W57811  25.962  27.846   9.000  0.0889 -0.0057 -0.3327
    1W        W57812  27.261  15.197   6.028  0.3311 -0.0980  0.0073
    1W        W57813   0.450  20.932   0.090  0.0580 -0.0862 -0.0762
    1W        W57814  15.101  26.222   1.769 -0.2495 -0.2633 -0.2669
    1W        W57815  16.311  23.609   2.105 -0.0339 -0.3122  0.2877
    1W        W57816   2.906   5.803   0.702  0.1150 -0.2848  0.0733
    1W        W57817   1.409  28.994   0.811  0.2706  0.2369 -0.0614
    1W        W57818  16.061   0.678   8.997 -0.2815 -0.4105 -0.2037
    1W        W57819   3.379   7.423   8.579 -0.0670  0.0503 -0.1646
    1W        W57820  27.808  20.622   6.909  0.2378 -0.4205 -0.1237
    1W        W57821  22.885   3.977   8.856  0.0173 -0.0528 -0.1395
    1W        W57822  23.280  13.337   5.803  0.2830  0.0173 -0.1489
    1W        W57823  15.384  17.748   0.661  0.2314  0.0068  0.3891
    1W        W57824  22.248  12.781   6.678 -0.2245  0.1169 -0.0797
    1W        W57825  25.270  22.373   1.561 -0.0807  0.0426 -0.1217
    1W        W57826   6.640  24.955   2.166 -0.0170  0.0949 -0.2425
    1W        W57827  29.627  15.217   0.901  0.1210  0.0884 -0.0311
    1W        W57828   8.437  14.866   2.247 -0.0123 -0.2030 -0.0051
    1W        W57829  23.744   7.242   7.914 -0.0333  0.0059  0.2704
    1W        W57830   7.352  13.322   3.478  0.3354  0.0344  0.2306
    1W        W57831   5.767   4.924   8.733 -0.2178 -0.3662  0.0112
    1W        W57832  24.703  18.400   8.349 -0.1054  0.1687 -0.1636
    1W        W57833   5.470  15.109   7.478 -0.2526  0.2389 -0.0707
    1W        W57834  10.208  27.874   1.565 -0.0656  0.3268 -0.2480
    1W        W57835  24.122  28.587   7.275 -0.1024  0.2243  0.0123
    1W        W57836  13.082  24.152   8.025 -0.2682 -0.1008 -0.1124
    1W        W57837  22.813  23.793   7.542 -0.1463  0.1674  0.0983
    1W        W57838   6.448   7.625   1.052  0.2839  0.1468 -0.1444
    1W        W57839   3.419  26.846   7.011 -0.0531  0.2666 -0.0748
    1W        W57840   1.961   7.240   3.183  0.2168  0.0363 -0.2158
    1W        W57841   0.165   1.841   7.776 -0.2424 -0.0996  0.1207
    1W        W57842  12.128  29.525   7.337 -0.2131  0.1376 -0.0369
    1W        W57843   6.870  23.398   6.588  0.2793 -0.2633 -0.0405
    1W        W57844  10.144   2.548   7.746 -0.0017  0.0394  0.0054
    1W        W57845  11.540   8.644   0.968 -0.0437 -0.0439 -0.2581
    1W        W57846   7.254  14.916   1.788  0.1304 -0.1065  0.3152
    1W        W57847  10.095  29.606   8.889 -0.1249  0.1480  0.0638
    1W        W57848   0.269  24.655   1.203  0.1371  0.3303 -0.1883
    1W        W57849   6.557  22.452   2.136 -0.0996  0.0756 -0.4405
    1W        W57850  25.471   9.908   6.131  0.3853 -0.1086  0.0833
    1W        W57851   9.207  26.374   9.165 -0.0215 -0.0618 -0.4702
    1W        W57852  20.701  22.061   9.303  0.0090 -0.2371  0.0507
    1W        W57853  24.102   4.713   7.686 -0.4118  0.1714 -0.0678
    1W        W57854  15.761  14.465   1.129 -0.0972  0.3577  0.1045
    1W        W57855  13.002  15.190   6.697  0.3183 -0.0681 -0.1556
    1W        W57856  21.903   2.782   2.649 -0.0553  0.1801  0.0503
    1W        W57857  28.635  19.882   6.954  0.0913 -0.0691  0.0913
    1W        W57858   2.555  22.671   8.869  0.0118 -0.1417 -0.0482
    1W        W57859   2.784  23.061   1.131  0.0534  0.3429 -0.1800
    1W        W57860   7.304   8.329   3.697 -0.0210 -0.1099  0.0329
    1W        W57861  19.270   5.909   0.527 -0.2024  0.0590 -0.1183
    1W        W57862  17.309  29.045   8.199  0.2705  0.0901  0.1363
    1W        W57863  29.180  17.770   8.715 -0.2107  0.1773  0.0520
    1W        W57864   5.023   4.066   3.169  0.1212  0.1865 -0.0958
    1W        W57865  25.291  18.977   6.591  0.2205  0.3731  0.0858
    1W        W57866   4.005  27.702   1.482 -0.1831  0.5227 -0.0777
    1W        W57867   6.640   4.688   1.599  0.0961  0.0077 -0.0043
    1W        W57868  29.832   9.258   8.524  0.1177 -0.3119  0.0974
    1W        W57869   3.284  27.133   7.657 -0.1623  0.2146 -0.1810
    1W        W57870   8.155  22.752   7.641 -0.3392 -0.0220 -0.1007
    1W        W57871  18.857  14.390   8.464  0.0098  0.2328 -0.0332
    1W        W57872   3.570  20.697   1.608 -0.1890  0.0292  0.2496
    1W        W57873  18.312  10.438   2.137 -0.0262 -0.0768 -0.1379
    1W        W57874  29.650  25.039   0.258 -0.0868  0.3300  0.0461
    1W        W57875   6.423  11.824   8.022 -0.2630 -0.1023 -0.1832
    1W        W57876  24.772  24.610   9.273 -0.2099  0.0814  0.0775
    1W        W57877  26.052  16.299   0.582  0.0169  0.1293  0.3150
    1W        W57878  15.351  21.209   1.238 -0.2144 -0.1345 -0.1236
    1W        W57879  14.817  14.149   0.713  0.1441 -0.0630  0.1231
    1W        W57880   0.645  22.530   8.344 -0.3254 -0.0577 -0.0423
    1W        W57881  12.854  27.694   7.833 -0.0470 -0.5647  0.3001
    1W        W57882  27.120  17.778   6.629  0.1444 -0.2082  0.4210
    1W        W57883  17.398  15.915   1.177 -0.0468 -0.1603 -0.1976
    1W        W57884  20.170  28.973   8.939 -0.4167 -0.1637  0.1360
    1W        W57885  24.061  29.535   1.855 -0.0313  0.1878 -0.1597
    1W        W57886   0.917   1.674   8.798 -0.0984 -0.1118 -0.2632
    1W        W57887  26.601  23.178   8.169 -0.1698 -0.0927  0.2354
    1W        W57888  21.101  28.923   7.354 -0.1190 -0.1623  0.3793
    1W        W57889   6.003   2.277   8.558  0.0110  0.2236  0.3279
    1W        W57890  24.558  23.757   6.523 -0.1362 -0.3560  0.1351
    1W        W57891   8.104  10.591   9.138  0.1338  0.0758  0.2045
    1W        W57892  12.863  29.046   8.445 -0.0938  0.0791 -0.2395
    1W        W57893  29.902   7.705   2.813 -0.1393  0.1374  0.3782
    1W        W57894  26.168  13.605   8.429  0.0750  0.2127  0.2167
    1W        W57895  16.251   8.041   0.932  0.0893 -0.1875 -0.0434
    1W        W57896  24.789  28.702   2.666 -0.2328  0.1838  0.0898
    1W        W57897  26.919   7.733   6.236  0.0618  0.2943 -0.0650
    1W        W57898  21.018  10.771   1.948 -0.1348 -0.0207 -0.0011
    1W        W57899  20.221  15.187   7.351 -0.1403  0.3362  0.0292
    1W        W57900  19.995  27.148   8.373  0.0917 -0.3117 -0.0025
    1W        W57901  26.757  21.871   1.723  0.1141 -0.1750  0.0257
    1W        W57902  20.998  14.217   7.690 -0.1366  0.1989  0.1308
    1W        W57903  10.928  18.418   1.539 -0.1459 -0.1935  0.1331
    1W        W57904  12.163  13.713   8.514  0.2770  0.1430 -0.0113
    1W        W57905   7.266   8.479   1.856 -0.1000 -0.0686 -0.1491
    1W        W57906   7.596  24.383   1.375 -0.1001 -0.3876 -0.0170
    1W        W57907   8.806  28.194   7.454  0.0739 -0.0397  0.2340
    1W        W57908   6.344  17.953   8.719  0.2029 -0.4080 -0.0365
    1W        W57909  17.367  20.347   8.079 -0.0937  0.0293  0.1168
    1W        W57910  10.639  11.275   3.272 -0.1252 -0.0250 -0.0249
    1W        W57911   2.797  16.988   1.957  0.0398  0.1074 -0.0998
    1W        W57912   8.836  23.804   8.403  0.0508 -0.2714  0.1609
    1W        W57913  16.128   6.610   1.234 -0.3970  0.2969 -0.1863
    1W        W57914  18.358  25.709   6.613 -0.1018  0.0769  0.0299
    1W        W57915  26.490  19.599   6.763  0.3383  0.3500  0.3141
    1W        W57916   1.340  26.317   6.543  0.4420  0.0440 -0.0170
    1W        W57917  27.036  30.009   1.027  0.0428  0.0911 -0.0275
    1W        W57918   9.360  20.070   0.205  0.0755 -0.0291 -0.0385
    1W        W57919   7.173  13.261   9.083  0.1784 -0.0726  0.1540
    1W        W57920  21.285  26.131   8.628 -0.1000 -0.1407  0.0979
    1W        W57921  24.443  23.152   1.597 -0.0719  0.0328  0.0744
    1W        W57922  29.159  12.704   8.080 -0.3152 -0.1540  0.1408
    1W        W57923  11.482   2.700   8.618  0.4715 -0.2339 -0.4108
    1W        W57924  29.595  15.647   1.143  0.1494 -0.0351 -0.2359
    1W        W57925  28.308  25.173   1.549  0.0118  0.2353  0.0518
    1W        W57926  23.324  15.236   1.086 -0.1195 -0.4284 -0.1378
    1W        W57927   7.037  25.179   1.500 -0.1312  0.1129 -0.2337
    1W        W57928  22.559  16.308   0.941 -0.0380 -0.4745  0.0732
    1W        W57929   3.954  13.198   1.810  0.0111 -0.1710 -0.0626
    1W        W57930  29.620  25.759   8.825  0.0979  0.0730 -0.0829
    1W        W57931   7.295  13.108   2.925  0.1409 -0.2251 -0.1077
    1W        W57932  19.563  10.449   9.071  0.0786 -0.3012 -0.1587
    1W        W57933  18.090  27.608   2.631 -0.1933  0.2143  0.1697
    1W        W57934  27.109  27.860   7.921 -0.1049 -0.0621  0.0599
    1W        W57935  26.433  26.470   6.972 -0.1613 -0.2265 -0.3089
    1W        W57936   3.657  16.294   8.659 -0.0704  0.0590  0.1949
    1W        W57937  21.791   4.241   8.060 -0.1049 -0.1000 -0.1897
    1W        W57938   7.349  14.768   0.997  0.2360  0.2725 -0.0995
    1W        W57939  28.115   0.547   0.385 -0.1494 -0.3178 -0.2176
    1W        W57940  11.784  11.269   7.942 -0.1076  0.0409 -0.2032
    1W        W57941  14.590  29.700   0.889  0.1423  0.0549 -0.0523
    1W        W57942  18.730   5.773   0.440 -0.4418  0.0914 -0.0026
    1W        W57943  22.927  21.285   7.543  0.1227  0.1521  0.0313
    1W        W57944  26.240   0.067   0.398  0.0821  0.2801 -0.1632
    1W        W57945  15.511  23.174   6.829 -0.3521 -0.2457 -0.0817
    1W        W57946   7.979   9.973   3.692 -0.2256  0.1178  0.0053
    1W        W57947  10.128  29.901   7.596  0.0364  0.3135  0.0745
    1W        W57948   6.533  24.203   0.191 -0.3206  0.1386  0.1788
    1W        W57949  28.669  29.036   0.163  0.0853 -0.2022  0.0126
    1W        W57950   2.905  29.908   1.170  0.1327 -0.1764 -0.3906
    1W        W57951   3.439   0.300   8.601  0.1875 -0.2203  0.4620
    1W        W57952  23.608  10.055   1.832 -0.1402  0.0349 -0.1129
    1W        W57953   5.422  21.160   7.145  0.3343 -0.0167  0.2074
    1W        W57954   9.317  11.460   1.317 -0.0310  0.3036 -0.4642
    1W        W57955  28.817   6.993   6.363 -0.1912 -0.0566 -0.4210
    1W        W57956   3.391  21.192   0.370  0.0398  0.3757  0.1002
    1W        W57957  19.993   0.878   8.536 -0.0151  0.0194  0.1267
    1W        W57958   8.107  18.451   1.956 -0.0405 -0.2987 -0.0729
    1W        W57959  11.879  27.359   0.443  0.0370  0.2609  0.1000
    1W        W57960  27.728   3.086   5.794 -0.3810  0.0705 -0.3755
    1W        W57961  15.878   4.532   3.201  0.2834  0.1391 -0.1371
    1W        W57962  25.343  29.421   1.748  0.3343  0.2188  0.2774
    1W        W57963  28.482   3.736   9.230 -0.0459  0.1901 -0.1617
    1W        W57964   6.102  27.860   0.313  0.1757 -0.1269 -0.0857
    1W        W57965  29.899  29.377   2.661 -0.2008  0.0719  0.0326
    1W        W57966  23.404  24.353   1.994  0.0681  0.0166  0.1043
    1W        W57967  19.161  25.583   0.092 -0.3395  0.3693  0.0521
    1W        W57968  15.027   1.662   2.766  0.0003 -0.2191  0.1725
    1W        W57969   5.635  13.368   9.350 -0.3388 -0.2807 -0.1374
    1W        W57970   6.116   2.875   3.377  0.1226 -0.0092 -0.0155
    1W        W57971   2.341  26.863   8.012 -0.1644  0.0826 -0.4757
    1W        W57972  12.287  19.444   0.517  0.3451  0.1662  0.1656
    1W        W57973  11.597   6.485   1.796  0.0165 -0.0314 -0.0248
    1W        W57974  11.267  17.124   9.220 -0.1712 -0.0476 -0.0432
    1W        W57975  14.000   3.112   9.024  0.1719 -0.2940  0.0225
    1W        W57976   8.085  23.293   7.608  0.3066  0.1073  0.5386
    1W        W57977  12.059  11.991   1.367  0.0680 -0.0399  0.4283
    1W        W57978  26.564  12.254   8.027 -0.5465  0.0901 -0.2561
    1W        W57979  28.074  16.915   1.223  0.0643 -0.0309 -0.1812
    1W        W57980  11.833   8.543   0.041  0.2621  0.0167 -0.0407
    1W        W57981   0.406  27.313   2.706 -0.1111  0.2286 -0.0023
    1W        W57982   0.329  26.019   8.215 -0.1879 -0.1852 -0.0076
    1W        W57983  24.023  20.308   7.884 -0.1617 -0.2502 -0.1210
    1W        W57984  10.414  11.838   7.030 -0.4789 -0.1131 -0.2358
    1W        W57985  11.921   2.449   1.727  0.0941 -0.0941  0.1027
    1W        W57986   8.142  22.987   1.598  0.1287  0.1714 -0.5111
    1W        W57987   3.195  18.746   8.146 -0.0146  0.1480 -0.3173
    1W        W57988  19.866  29.552   1.011  0.0451  0.0892 -0.3572
    1W        W57989  22.440  19.255   6.390  0.5003  0.0660  0.0812
    1W        W57990   0.649   7.792   1.689 -0.1454 -0.0270  0.2667
    1W        W57991  23.805  25.970   0.321 -0.3561  0.3217  0.2442
    1W        W57992  20.810  25.182   1.323 -0.3274  0.1002 -0.5563
    1W        W57993   6.678  20.579   8.043  0.0462 -0.1139 -0.0161
    1W        W57994  13.145  26.179   8.584 -0.1312 -0.1350 -0.0944
    1W        W57995  12.981  19.025   7.623 -0.1068  0.1596 -0.0587
    1W        W57996  21.663  23.318   8.001 -0.0546  0.0372 -0.1953
    1W        W57997  26.938   7.912   8.832  0.0348 -0.0743  0.0978
    1W        W57998  23.271   2.654   1.288  0.4082  0.1179 -0.2387
    1W        W57999  14.335  13.362   0.201 -0.0956  0.0383 -0.2511
    1W        W58000  16.263   5.804   0.423 -0.0695 -0.1526 -0.0544
    1W        W58001  24.017   7.335   0.117 -0.0225 -0.0333 -0.1817
    1W        W58002  10.297   9.656   2.893  0.1536 -0.1194 -0.0040
    1W        W58003  20.872   5.195   1.380 -0.0611  0.1625  0.4212
    1W        W58004  27.125   2.028   7.380  0.0412  0.0010  0.0775
    1W        W58005  28.935  19.530   1.523  0.1978 -0.1942 -0.0519
    1W        W58006   7.643  20.534   8.188 -0.0063  0.0010  0.0940
    1W        W58007   0.743  17.169   2.044  0.0608  0.1645 -0.1739
    1W        W58008  15.972  11.620   2.129 -0.0528 -0.0977 -0.1220
    1W        W58009   2.622  13.426   1.534  0.3090  0.2363  0.0352
    1W        W58010  29.806   9.073   1.134  0.1676 -0.1086  0.1162
    1W        W58011  18.971   6.286   0.270  0.0558  0.0616 -0.2313
    1W        W58012   4.061  29.023   8.651  0.1306 -0.0528  0.4034
    1W        W58013  23.506   5.955   8.552 -0.1057  0.0043 -0.1398
    1W        W58014  18.564  16.893   8.732 -0.0120 -0.3726  0.1657
    1W        W58015   2.450  10.913   0.994 -0.0660 -0.0912  0.0786
    1W        W58016   0.195  10.296   0.848  0.1444 -0.0261  0.0475
    1W        W58017  25.082  28.196   7.432 -0.0389 -0.0629 -0.2482
    1W        W58018   4.034   2.159   8.800  0.0780 -0.0303 -0.0193
    1W        W58019  21.628  17.050   0.462 -0.2083 -0.1851  0.1725
    1W        W58020  16.546  27.241   0.361 -0.2685 -0.0258 -0.0693
    1W        W58021  21.091   6.847   2.370 -0.0071 -0.1102  0.1487
    1W        W58022  26.350   1.956   0.515 -0.0736  0.0760 -0.1880
    1W        W58023  27.471  16.305   9.284  0.3818 -0.2877  0.0619
    1W        W58024  27.809  12.606   0.127  0.2733  0.2343 -0.1323
    1W        W58025   0.422  18.754   0.175 -0.0373 -0.3894 -0.0599
    1W        W58026   4.334  14.458   8.845  0.3337 -0.0216  0.0990
    1W        W58027  12.731   8.511   9.022  0.2385  0.2063  0.1367
    1W        W58028  27.949  20.468   6.463 -0.0211  0.2070  0.1416
    1W        W58029   6.408   4.144   7.920  0.2672 -0.1697  0.2432
    1W        W58030   0.242   7.373   7.313 -0.1008  0.0042 -0.0590
    1W        W58031  13.430  24.742   0.313 -0.2289 -0.1979 -0.0441
    1W        W58032   7.392  23.749   7.152 -0.2036 -0.0706  0.1610
    1W        W58033  30.051   4.897   2.987  0.0862 -0.1179 -0.1994
    1W        W58034  10.956  18.361   0.011 -0.1122 -0.2013 -0.0719
    1W        W58035   4.272  26.424   6.558  0.1151  0.3304  0.0130
    1W        W58036  24.538   6.910   9.241 -0.0450 -0.1489 -0.0499
    1W        W58037  26.381  14.581   8.424 -0.0863 -0.0370  0.0484
    1W        W58038  10.389  29.317   7.537 -0.1078 -0.2427 -0.1331
    1W        W58039  12.942   8.352   8.371 -0.2194 -0.1103  0.0333
    1W        W58040  20.151  26.210   1.829 -0.0512  0.2267  0.0193
    1W        W58041   4.284  27.691   2.784 -0.0735  0.0573 -0.0728
    1W        W58042   4.139   3.482   2.332  0.0589 -0.0216  0.4000
    1W        W58043  24.278  28.040   7.249 -0.0143  0.3897 -0.1335
    1W        W58044  21.672  22.841   0.789  0.0700 -0.2251  0.3159
    1W        W58045  22.010  20.315   8.208  0.4578 -0.0410  0.3177
    1W        W58046  20.997  19.285   8.592  0.0942  0.1960 -0.1469
    1W        W58047   1.780  22.505   6.540 -0.0869 -0.0900  0.1806
    1W        W58048   3.735  26.203   0.038  0.1663  0.1442  0.0994
    1W        W58049  16.205   6.712   7.796 -0.2519  0.0670  0.0214
    1W        W58050  24.464  19.986   7.304 -0.0379 -0.1177 -0.2483
    1W        W58051   8.296  28.916   1.569  0.1003  0.0490  0.5505
    1W        W58052  24.443   1.282   8.557 -0.0895  0.0342 -0.0752
    1W        W58053   4.831   8.846   2.315  0.1111 -0.0494  0.0066
    1W        W58054   3.622   4.858   7.984  0.3359  0.2572 -0.0961
    1W        W58055  20.074  11.400   1.497 -0.1420  0.3966 -0.2008
    1W        W58056  19.764  19.368   2.684  0.0607  0.1460  0.4118
    1W        W58057  29.224  11.310   1.611  0.3986 -0.1286 -0.3895
    1W        W58058  19.882  14.811   7.253  0.1379 -0.0152 -0.3426
    1W        W58059  22.987  27.921   7.580  0.0320  0.0298 -0.3538
    1W        W58060  18.447  27.679   7.266  0.2397  0.2136  0.0892
    1W        W58061  26.640  11.817   6.583 -0.0485 -0.1090  0.0219
    1W        W58062   4.053   2.392   1.869 -0.1440  0.1233  0.0522
    1W        W58063  29.434  18.875   0.021 -0.1663 -0.1656  0.0167
    1W        W58064   8.747  10.575   3.276 -0.1786  0.0722 -0.2004
    1W        W58065   3.147  12.636   2.448 -0.1065  0.3458  0.1472
    1W        W58066   0.491  21.618   7.567 -0.0643  0.1006  0.1960
    1W        W58067   9.860  23.697   1.460  0.2475  0.2094 -0.0512
    1W        W58068  26.172  10.600   0.937  0.1783 -0.0011  0.0160
    1W        W58069  27.682  12.537   5.788 -0.3412  0.2116 -0.0420
    1W        W58070   5.247  14.913   7.898  0.1922  0.2146  0.2535
    1W        W58071   0.611   2.263   1.483 -0.2736 -0.0826 -0.1693
    1W        W58072  27.354   4.711   8.245 -0.0444 -0.2416 -0.1911
    1W        W58073  11.162  19.780   6.810 -0.1342 -0.0265 -0.0439
    1W        W58074  22.628   9.105   2.194  0.1494  0.0059  0.1702
    1W        W58075   5.772  19.120   8.192 -0.1029 -0.0614  0.0358
    1W        W58076  23.312  24.883   1.506 -0.3792  0.3670 -0.2848
    1W        W58077  27.781   4.567   8.694  0.1979 -0.0411  0.0946
    1W        W58078  26.258  17.143   6.961  0.0013  0.2280  0.1692
    1W        W58079   1.434  16.615   5.859 -0.3454 -0.0782 -0.2191
    1W        W58080  21.122   8.365   7.607  0.2609 -0.2487  0.1077
    1W        W58081  21.078  17.725   1.834 -0.4440  0.1525  0.1169
    1W        W58082   1.708  26.269   1.882  0.1139  0.5891 -0.0335
    1W        W58083  26.579   7.646   0.705  0.1459  0.0124 -0.1138
    1W        W58084   6.408  27.887   0.736  0.0586  0.0505  0.0817
    1W        W58085  20.101  29.234   7.343  0.3024  0.3206 -0.0234
    1W        W58086   1.652  23.277   5.484 -0.1531 -0.2698 -0.3164
    1W        W58087  28.149   6.003   0.434 -0.1822  0.2758 -0.0141
    1W        W58088   1.235  19.682   5.858  0.1230  0.3617 -0.5820
    1W        W58089  28.433  20.622   0.430 -0.1392  0.0572  0.3479
    1W        W58090  18.721  29.282   7.163  0.1319  0.0691  0.0057
    1W        W58091  13.154   3.476   0.049  0.0646 -0.0856  0.3091
    1W        W58092  15.085  13.953   7.677 -0.0833 -0.0220 -0.1230
    1W        W58093  28.677   7.095   2.507 -0.2939  0.2225  0.0642
    1W        W58094   6.181   0.322   0.328  0.2951 -0.2559 -0.2530
    1W        W58095   7.754   0.613   7.375 -0.0216 -0.1198 -0.1560
    1W        W58096  22.161  19.988   1.966  0.1247  0.1850 -0.0276
    1W        W58097  28.421   1.218   6.681 -0.0611  0.2664  0.0324
    1W        W58098  24.847   1.442   6.563  0.0754  0.0909  0.2754
    1W        W58099  23.816  11.842   8.750  0.0841 -0.0368 -0.1425
    1W        W58100  20.078  14.994   7.977  0.1341 -0.0901 -0.1855
    1W        W58101  10.876  12.512   2.636 -0.0379 -0.3548 -0.0349
    1W        W58102  27.493  20.670   2.023  0.0233  0.2370 -0.0188
    1W        W58103   2.429   1.181   7.192 -0.0413 -0.0352 -0.1384
    1W        W58104   4.801   6.254   1.393 -0.0593  0.2988 -0.1089
    1W        W58105  29.350  13.601   0.761 -0.1589 -0.0637 -0.2208
    1W        W58106   4.670   4.943   9.021 -0.0490  0.1113 -0.0420
    1W        W58107   4.400   8.689   7.221  0.0833  0.3596 -0.0425
    1W        W58108   5.669   2.626   1.736  0.0099 -0.1998 -0.3661
    1W        W58109  20.599   8.890   8.311  0.0297  0.1332  0.1352
    1W        W58110   6.080  19.841   1.814 -0.4549 -0.0761  0.4406
    1W        W58111   8.119   4.731   6.924  0.0535  0.0275  0.1570
    1W        W58112   8.521  26.613   7.740 -0.0880 -0.1130 -0.3008
    1W        W58113   4.426   5.199   0.589  0.3459 -0.0180  0.0814
    1W        W58114  27.549  14.463   1.626  0.0144 -0.1719  0.1685
    1W        W58115   1.273   3.723   7.376  0.2582 -0.0866  0.1196
    1W        W58116  13.707   1.128   2.460  0.3174  0.1065  0.1018
    1W        W58117   1.573   2.079   8.279  0.1610 -0.1443  0.2091
    1W        W58118   1.699  18.303   0.863  0.0667 -0.1255  0.3097
    1W        W58119  20.873   8.644   2.234  0.1797  0.2820  0.0118
    1W        W58120  27.155   1.352   2.155 -0.1108  0.2999 -0.4278
    1W        W58121   7.036   0.374   3.642  0.0895  0.3673 -0.1912
    1W        W58122  11.511  12.544   0.056 -0.1626  0.0084 -0.2170
    1W        W58123  11.121   3.408   7.872 -0.2006  0.0688 -0.0026
    1W        W58124  26.795  26.605   1.718  0.0076  0.2737  0.0564
    1W        W58125  23.727  16.862   8.660  0.4593  0.3016  0.0741
    1W        W58126  25.769  19.104   1.690 -0.4590 -0.0040  0.0526
    1W        W58127  23.566   5.586   2.493  0.2920 -0.3809 -0.2112
    1W        W58128  10.534  11.450   8.709 -0.0234 -0.1964  0.0233
    1W        W58129  15.164  22.154   0.880  0.1723 -0.1618  0.2784
    1W        W58130  28.478   6.416   8.519  0.0988 -0.5024 -0.3488
    1W        W58131  22.280  30.004   0.792 -0.0242 -0.2304 -0.1050
    1W        W58132  15.403  21.741   7.375 -0.0446 -0.0271  0.1217
    1W        W58133   6.432  28.237   1.643 -0.1981 -0.2327 -0.0819
    1W        W58134  15.874  12.793   1.430  0.1384  0.1342  0.1750
    1W        W58135  14.817   7.663   2.858 -0.0371 -0.0600 -0.3014
    1W        W58136  16.742   5.579   0.210  0.1479 -0.0893 -0.1874
    1W        W58137   2.116   4.132   7.995  0.0808 -0.3502 -0.1316
    1W        W58138  28.699   6.560   1.311  0.0898 -0.2037 -0.0183
    1W        W58139   3.380  28.646   1.876  0.2532  0.1535  0.0727
    1W        W58140  11.990  12.981   6.937  0.0360  0.1927 -0.2489
    1W        W58141  14.279   8.382   8.314  0.1522 -0.2115 -0.1193
    1W        W58142   4.086   1.701   9.079 -0.0692 -0.0494 -0.0283
    1W        W58143  28.591   9.083   0.112  0.1862 -0.0208  0.3095
    1W        W58144  29.159   8.667   8.330  0.0856 -0.1096 -0.1515
    1W        W58145  26.130  20.109   7.203  0.2685 -0.3481 -0.0953
    1W        W58146  15.148  29.131   7.030 -0.0762  0.1648  0.0163
    1W        W58147   7.004  24.880   9.155  0.0372  0.0387 -0.2027
    1W        W58148   8.724   9.715   9.017  0.0944 -0.1472 -0.0693
    1W        W58149  18.695   2.861   7.413  0.0760  0.0807  0.0314
    1W        W58150   9.741  10.811   1.167  0.3587  0.0172  0.1902
    1W        W58151  10.737   4.994   8.421 -0.0600 -0.0315 -0.2530
    1W        W58152  27.866  16.519   7.493 -0.1165  0.0582 -0.0793
    1W        W58153   1.306  27.327   2.932 -0.0673  0.0968  0.4535
    1W        W58154  14.234   3.854   1.242  0.0724  0.2007  0.0185
    1W        W58155  29.565  10.593   0.112 -0.0715 -0.2980 -0.0250
    1W        W58156  23.302   9.975   7.145 -0.0382  0.0178  0.0529
    1W        W58157   2.479  12.871   1.318  0.1501  0.2757  0.3010
    1W        W58158  19.688  22.336   8.106 -0.2360 -0.1214  0.1635
    1W        W58159   1.409  25.024   2.180  0.0678 -0.0506  0.0425
    1W        W58160  22.404   4.148   0.138 -0.0337 -0.2096 -0.1529
    1W        W58161  18.871  26.412   9.148  0.2352  0.2338  0.4080
    1W        W58162  18.462   1.305   7.541 -0.0131 -0.2210 -0.1392
    1W        W58163   0.163  22.453   0.353  0.1543  0.1951  0.0754
    1W        W58164  23.866   8.719   9.354  0.1164  0.2763  0.2043
    1W        W58165  22.834  21.843   0.641 -0.0900  0.3520  0.1498
    1W        W58166  13.097  28.277   0.542  0.1695 -0.2004  0.2910
    1W        W58167  16.103   8.119   0.008  0.2552 -0.1357  0.1050
    1W        W58168  17.283  21.494   7.600 -0.0358  0.1621 -0.2829
    1W        W58169   5.396  22.550   8.014 -0.2077  0.1009 -0.3274
    1W        W58170   8.313  11.064   8.737 -0.0387 -0.1466 -0.1948
    1W        W58171  21.212  22.625   6.228  0.0357  0.0162 -0.1772
    1W        W58172  22.848   5.128   7.531 -0.0994 -0.2354  0.0712
    1W        W58173  11.486  27.847   9.113 -0.0227 -0.0132 -0.0074
    1W        W58174  12.177  11.500   2.865  0.0343 -0.1507 -0.0547
    1W        W58175  22.598   1.911   8.201 -0.0036 -0.0131 -0.0830
    1W        W58176  30.079  17.152   0.830 -0.1433  0.0883 -0.0716
    1W        W58177   6.505   1.434   1.085 -0.2134  0.4257 -0.1019
    1W        W58178   4.911   1.189   8.123  0.0381  0.1983  0.2085
    1W        W58179  14.226  29.117   7.617 -0.2886  0.2993 -0.2915
    1W        W58180  28.898  18.216   6.122  0.2595 -0.0638  0.1548
    1W        W58181  18.512   0.323   2.811  0.2365 -0.1623 -0.0233
    1W        W58182  16.572   7.200   3.389  0.3338 -0.0587  0.1920
    1W        W58183  19.963  10.025   8.426 -0.0442  0.3902 -0.1342
    1W        W58184   9.802  20.203   1.009 -0.4481  0.0360 -0.1083
    1W        W58185  26.243   7.108   0.583  0.0693  0.0638 -0.0988
    1W        W58186  28.051  17.785   6.136 -0.0289  0.0265 -0.2708
    1W        W58187  20.101  22.303   7.601 -0.2654  0.1110 -0.0988
    1W        W58188  22.104  28.055   2.077 -0.1561  0.0341 -0.0349
    1W        W58189  26.245   9.423   7.066  0.0839  0.0822  0.1110
    1W        W58190  21.908   7.182   2.588 -0.1030  0.0190 -0.1812
    1W        W58191  10.520  15.247   0.047  0.2957 -0.0125 -0.3087
    1W        W58192  22.709  14.986   7.920 -0.1328  0.1675 -0.2663
    1W        W58193   2.856  11.781   2.651  0.1301  0.0568 -0.0374
    1W        W58194   4.268  28.892   3.467 -0.0563  0.2024 -0.0055
    1W        W58195  14.275  26.862   2.701  0.0831  0.0624  0.1159
    1W        W58196  25.462  26.776   8.861  0.1189  0.0350  0.0747
    1W        W58197  27.483  19.720   7.871  0.2738 -0.0726  0.0073
    1W        W58198  17.164  10.977   2.100  0.3688 -0.0310 -0.1218
    1W        W58199  11.896  26.957   1.361 -0.1756  0.1040 -0.3130
    1W        W58200   0.840  22.859   5.484 -0.3075 -0.1446  0.2240
    1W        W58201   4.147   6.558   9.022 -0.0756  0.0913  0.2650
    1W        W58202  30.135  25.889   9.250  0.1003  0.1944 -0.2218
    1W        W58203  30.135  16.137   5.941  0.0796 -0.0687 -0.0715
    1W        W58204   8.596  29.021   3.011  0.2384 -0.2685 -0.0446
    1W        W58205   1.937   7.949   2.332  0.3793 -0.3019  0.1324
    1W        W58206   7.271  22.492   7.738  0.1364  0.0661  0.3324
    1W        W58207   7.633  18.856   1.222  0.1904  0.0868  0.0794
    1W        W58208  23.420  18.901   7.916 -0.2265 -0.3116 -0.3291
    1W        W58209  14.947  21.669   8.625 -0.1724 -0.1334 -0.1286
    1W        W58210   2.767  13.604   8.343  0.1964  0.3018  0.2898
    1W        W58211  17.552   0.197   0.898 -0.0609  0.1857 -0.1293
    1W        W58212  27.411   8.559   6.405 -0.0087  0.0941  0.0227
    1W        W58213  16.163  12.997   0.368 -0.1692 -0.2240 -0.0650
    1W        W58214  20.447   1.277   1.112  0.3378 -0.0567  0.0316
    1W        W58215   4.421   2.680   0.006  0.1185 -0.1388 -0.0956
    1W        W58216  18.332   1.566   3.591  0.2943  0.1271  0.0847
    1W        W58217  29.885  12.073   1.777 -0.0966 -0.4811  0.2139
    1W        W58218  25.899  22.324   9.382  0.0599  0.2076 -0.1548
    1W        W58219  21.251  11.136   1.693 -0.1709  0.1327 -0.2039
    1W        W58220   4.844   5.095   1.333 -0.1559  0.1027  0.1295
    1W        W58221  25.283  19.694   9.205  0.0703  0.2338 -0.0113
    1W        W58222   0.584   1.358   2.968 -0.1826  0.0729  0.0086
    1W        W58223  23.948  30.034   1.060 -0.1419  0.0051 -0.2421
    1W        W58224  16.618  22.937   8.929 -0.5870  0.1501 -0.0079
    1W        W58225  21.066  12.726   2.244 -0.3702 -0.0143 -0.0439
    1W        W58226  30.038   1.881   0.271  0.2687  0.0521  0.0275
    1W        W58227  20.245   4.175   9.220 -0.1654  0.0222 -0.2169
    1W        W58228  23.186   0.110   3.252 -0.5246  0.1225  0.1291
    1W        W58229  18.567  14.270   1.521 -0.1195 -0.4389  0.0696
    1W        W58230  14.394  19.097   9.358  0.0439 -0.1280 -0.4013
    1W        W58231  22.329  11.087   8.040  0.1377 -0.2566 -0.2123
    1W        W58232  22.728   0.123   1.621 -0.2088  0.1103  0.1508
    1W        W58233  16.214  24.369   9.306 -0.1785 -0.0755  0.0154
    1W        W58234   4.330  29.354   1.002  0.1483 -0.1908 -0.0896
    1W        W58235  15.362  15.264   1.942 -0.0212 -0.1708 -0.2176
    1W        W58236  24.458  24.288   1.028  0.0820 -0.0793  0.2908
    1W        W58237   3.040  18.352   9.046  0.3085 -0.2134  0.2600
    1W        W58238  26.298  16.949   1.217  0.1207  0.1591 -0.0079
    1W        W58239  24.221   9.864   8.020  0.2283 -0.0890  0.0363
    1W        W58240  28.813   0.447   9.401 -0.1078  0.2014 -0.0568
    1W        W58241  22.927  29.214   2.218 -0.0924 -0.1414  0.3225
    1W        W58242  27.387  18.531   0.762 -0.0558 -0.0929  0.0507
    1W        W58243  23.341  19.734   8.822 -0.1568  0.1414 -0.0407
    1W        W58244   3.306  29.379   1.401  0.2710 -0.0102  0.0587
    1W        W58245  16.068  26.628   9.276 -0.0939 -0.2931 -0.0234
    1W        W58246  25.755   0.965   0.020 -0.1211  0.1733  0.2701
    1W        W58247   7.938  19.016   6.463 -0.1476  0.0610 -0.2952
    1W        W58248  25.413  21.564   7.486  0.3242  0.0240  0.0523
    1W        W58249   2.466  23.073   7.109 -0.0973 -0.0761  0.1391
    1W        W58250   4.943  29.754   2.260 -0.1053 -0.0920 -0.0803
    1W        W58251   5.886  18.374   7.538  0.2047 -0.1324  0.1107
    1W        W58252  12.200   0.955   3.502 -0.3146 -0.2094 -0.0841
    1W        W58253  28.801  19.499   8.259  0.1346 -0.0485 -0.0012
    1W        W58254  10.617   4.747   1.667  0.1605 -0.1301 -0.1581
    1W        W58255   2.675  22.082   0.286  0.1202 -0.3686  0.1111
    1W        W58256  10.218   9.916   8.347  0.4330  0.4826 -0.1000
    1W        W58257   7.600  11.904   3.879 -0.0192 -0.0920  0.1970
    1W        W58258  26.242  25.938   2.125 -0.1113  0.2634 -0.0814
    1W        W58259   5.935  24.724   8.469 -0.0910  0.2668  0.2723
    1W        W58260  26.756   3.809   2.188  0.1116 -0.2409 -0.1191
    1W        W58261  25.794  12.262   8.771 -0.1706  0.1727 -0.1659
    1W        W58262  26.111  12.992   0.032 -0.0614  0.4557  0.0050
    1W        W58263   6.016   5.457   1.992  0.1238  0.2559 -0.0110
    1W        W58264   6.639  23.831   6.588 -0.1651 -0.0905 -0.3416
    1W        W58265  20.529  19.369   9.208 -0.2325  0.0342 -0.1507
    1W        W58266  27.372  18.509   7.187  0.1686 -0.1663  0.1571
    1W        W58267   7.137  14.791   8.877 -0.2282  0.0080  0.3422
    1W        W58268  21.239  24.533   0.004 -0.3841 -0.0394  0.0989
    1W        W58269   3.943  22.917   0.355 -0.2023 -0.2327  0.1144
    1W        W58270   6.701  10.281   2.555  0.0808 -0.1409 -0.1029
    1W        W58271  16.926   0.293   7.565 -0.0296  0.4674  0.1272
    1W        W58272  10.940  26.793   2.010  0.0977  0.0158  0.0690
    1W        W58273  18.172  22.509   0.472 -0.1643  0.0778 -0.3405
    1W        W58274  27.919  15.177   8.387  0.0628  0.0346  0.3778
    1W        W58275   5.665  19.882   9.359  0.0184  0.1503  0.2189
    1W        W58276   4.471   2.362   8.478 -0.0610 -0.0349  0.0386
    1W        W58277   9.024  24.384   7.954 -0.1049 -0.0294  0.1822
    1W        W58278  27.147  15.902   4.804 -0.1408  0.3332  0.3341
    1W        W58279  24.887  17.639   8.962  0.1013  0.0157 -0.0911
    1W        W58280  25.235  20.691   8.106  0.2112 -0.0619 -0.0779
    1W        W58281  22.639  23.173   6.142 -0.1359 -0.2949 -0.2006
    1W        W58282   3.373   6.519   1.238 -0.0747 -0.1554 -0.0846
    1W        W58283  26.243  14.605   8.925 -0.2998 -0.0184 -0.0358
    1W        W58284   8.557  21.251   0.846 -0.0198 -0.1228  0.0788
    1W        W58285   5.161  26.959   8.482 -0.2906 -0.0972 -0.1138
    1W        W58286   9.441  22.593   7.150 -0.1101  0.4813 -0.1934
    1W        W58287  18.857   9.846   7.012  0.1477 -0.0949  0.1038
    1W        W58288  24.233  11.968   8.131  0.0610  0.1202  0.3829
    1W        W58289   6.659  28.073   0.305  0.0597  0.3560 -0.0246
    1W        W58290   8.250  21.181   6.813 -0.0962  0.1190 -0.2703
    1W        W58291  13.346  27.965   9.083 -0.0773  0.3841  0.0356
    1W        W58292  11.040  19.727   9.257  0.0797  0.0164 -0.0454
    1W        W58293  19.366   3.813   0.235 -0.0046  0.0903 -0.1469
    1W        W58294  22.704   7.301   0.133  0.3685 -0.1343 -0.3566
    1W        W58295  20.683   8.352   6.570  0.2413  0.1655  0.0497
    1W        W58296  29.040   5.953   2.589  0.0895  0.1048  0.1081
    1W        W58297   4.568  18.921   8.475 -0.1689  0.0314 -0.0675
    1W        W58298  21.192  26.978   8.998 -0.1374 -0.3097 -0.2862
    1W        W58299   1.263  20.310   1.467  0.2481  0.0296  0.0565
    1W        W58300   4.918  29.504   2.699  0.0000 -0.1467  0.1256
    1W        W58301  17.345   2.010   1.938 -0.0003 -0.0141  0.0591
    1W        W58302  22.870   3.078   7.179 -0.1025  0.1223  0.0190
    1W        W58303  29.936   0.232   0.831  0.0047  0.3659  0.1596
    1W        W58304  15.518   4.791   1.603  0.0342  0.2549  0.1038
    1W        W58305  15.304  18.597   7.346  0.1143 -0.0316  0.0536
    1W        W58306  25.811  23.185   1.567  0.0942 -0.0088 -0.1327
    1W        W58307   9.811   5.907   2.265 -0.1642 -0.0561 -0.0889
    1W        W58308   9.080   7.874   7.019  0.1187  0.2375  0.1732
    1W        W58309  15.614  18.833   1.580 -0.0967  0.1474  0.1422
    1W        W58310   5.598   6.711   0.149  0.1811  0.1977  0.0034
    1W        W58311   5.306   6.125   2.710  0.2682  0.0141 -0.0161
    1W        W58312   2.554  10.945   2.281  0.1901  0.3858  0.2534
    1W        W58313  22.190   7.201   7.073 -0.1164 -0.3018  0.1257
    1W        W58314  29.403  21.506   1.617 -0.3225 -0.3032  0.2858
    1W        W58315  25.955  19.205   8.462  0.0584 -0.0413  0.2912
    1W        W58316   0.267   9.239   0.077  0.0637 -0.0611 -0.1290
    1W        W58317  12.007  12.718   0.451  0.0261  0.1443 -0.1687
    1W        W58318   7.801   3.485   8.263 -0.2158 -0.1095  0.1407
    1W        W58319  14.118  12.880   1.558  0.1155  0.1597  0.0428
    1W        W58320  16.352  16.242   8.430  0.2204 -0.0426  0.0873
    1W        W58321  20.177   5.501   2.128  0.0228  0.0278  0.1221
    1W        W58322  11.127  26.866   9.157  0.0542 -0.1706  0.2121
    1W        W58323   8.535  22.324   1.997  0.1610  0.2381  0.2306
    1W        W58324   9.321   2.611   1.136 -0.1278  0.1670  0.0504
    1W        W58325   9.709   7.983   9.024 -0.0716  0.0727 -0.2458
    1W        W58326  23.077  10.346   2.444  0.0968 -0.1321  0.0885
    1W        W58327  25.628   7.784   9.246  0.5427 -0.1558  0.0393
    1W        W58328   2.168  28.538   0.092  0.2961  0.0145 -0.0277
    1W        W58329  18.548   9.397   6.878  0.2047  0.0693 -0.4981
    1W        W58330  16.589  15.462   9.024  0.2258  0.0352 -0.0869
    1W        W58331  17.663  20.080   7.581 -0.1656  0.0701  0.4005
    1W        W58332  21.061  10.532   0.406 -0.1121  0.0207  0.3736
    1W        W58333  21.950  22.210   9.354 -0.0935 -0.2106 -0.4363
    1W        W58334  13.841   6.982   0.465 -0.0513 -0.1189 -0.1442
    1W        W58335   4.867  18.002   6.846  0.0396  0.1209 -0.0092
    1W        W58336  21.966  25.831   8.065 -0.0214  0.0290 -0.1046
    1W        W58337   0.889  28.258   2.231  0.0890  0.1387 -0.0218
    1W        W58338   4.427  10.565   2.303 -0.1202  0.0480  0.0394
    1W        W58339  19.880   1.964   1.096  0.1766 -0.1478  0.0289
    1W        W58340  28.138  28.689   1.548 -0.1038 -0.0498  0.0424
    1W        W58341   9.633  29.825   0.201 -0.1967 -0.2721  0.1245
    1W        W58342   9.138  24.205   8.528  0.0712 -0.0635  0.1536
    1W        W58343   1.557   7.621   7.790 -0.1058 -0.1495  0.3827
    1W        W58344  20.981  10.796   7.480 -0.0765  0.0721  0.0715
    1W        W58345  21.454  11.586   8.509 -0.0194 -0.0085 -0.0443
    1W        W58346   4.434  23.010   0.052  0.1638 -0.0394 -0.0591
    1W        W58347  15.272  15.185   7.062 -0.0052 -0.1135 -0.0942
    1W        W58348  23.578   8.754   6.554  0.1245 -0.3589  0.3428
    1W        W58349   2.750  20.907   8.297  0.1033 -0.4031  0.2106
    1W        W58350  17.399  23.345   1.320  0.1274 -0.0000  0.3294
    1W        W58351  27.585  16.999   0.765 -0.3307  0.0671 -0.0818
    1W        W58352   7.775   6.147   7.814 -0.0448 -0.3625 -0.1104
    1W        W58353  12.840   2.082   3.311  0.0675  0.0439 -0.0602
    1W        W58354  17.597  15.636   8.534  0.0730  0.1262 -0.0294
    1W        W58355  14.290  12.510   0.903 -0.0272 -0.0785  0.0637
    1W        W58356  14.359  26.294   1.245 -0.3598  0.0752  0.0453
    1W        W58357   0.765  22.721   9.123 -0.0514 -0.1657 -0.0478
    1W        W58358  22.880  21.437   8.163  0.2001 -0.2252 -0.0044
    1W        W58359   0.377   2.005   0.132 -0.0651  0.1233  0.3635
    1W        W58360  21.075   1.631   8.882 -0.2488 -0.2187  0.1970
    1W        W58361   8.030  26.254   0.072  0.0769 -0.2238 -0.2249
    1W        W58362  26.130   1.759   8.738  0.2060  0.2907  0.0142
    1W        W58363  29.971   6.392   7.896  0.4301 -0.1721  0.0571
    1W        W58364   7.142  11.463   1.690  0.2334 -0.1264 -0.0929
    1W        W58365  21.464  11.357   1.250  0.0809 -0.3259  0.0556
    1W        W58366  26.955  19.085   9.051  0.1191 -0.0654 -0.1317
    1W        W58367  24.537  21.847   6.465  0.4339  0.3186 -0.1279
    1W        W58368  28.589   7.538   0.537 -0.0669 -0.0274  0.0382
    1W        W58369   9.220  12.441   2.651 -0.1365  0.2924 -0.0639
    1W        W58370  15.992  19.697   1.354  0.1209 -0.0951 -0.0752
    1W        W58371  15.632   7.058   2.093  0.1456 -0.1257  0.1697
    1W        W58372  28.262  14.322   5.266  0.0108  0.1049  0.0306
    1W        W58373  21.346  14.943   8.994  0.0128 -0.1329  0.2880
    1W        W58374  18.562  15.265   6.828 -0.1949  0.1133 -0.2270
    1W        W58375   8.389  16.494   8.471 -0.2971  0.0050 -0.0128
    1W        W58376  29.630   5.633   0.975 -0.0675 -0.0711 -0.0318
    1W        W58377   3.292   1.349   3.059 -0.2921 -0.1308 -0.0443
    1W        W58378  25.465  10.293   6.472 -0.0355  0.2233  0.0962
    1W        W58379  10.826   0.143   7.445 -0.6796 -0.3928 -0.1207
    1W        W58380  15.649  15.615   8.657 -0.0523 -0.1539 -0.2084
    1W        W58381  21.824   0.092   7.162 -0.2908 -0.0212 -0.0532
    1W        W58382  12.819   0.553   2.083  0.1298  0.2375  0.1124
    1W        W58383   7.697   1.477   8.426 -0.4069  0.2464  0.1855
    1W        W58384   6.331   0.689   3.846  0.1116  0.1054 -0.2830
    1W        W58385  18.540   4.152   7.246 -0.1721  0.0495  0.1569
    1W        W58386   1.924   5.999   2.498 -0.0100 -0.0621  0.0124
    1W        W58387  20.420   8.472   2.492  0.1870 -0.3018  0.2973
    1W        W58388   9.303  27.089   8.113  0.0556 -0.2804 -0.0750
    1W        W58389   2.248  14.995   7.040 -0.2187 -0.1777 -0.0345
    1W        W58390  21.980  18.168   8.843  0.2366  0.1583 -0.0320
    1W        W58391  12.645   8.092   7.414 -0.2162  0.0969 -0.1657
    1W        W58392  17.409  19.540   8.448 -0.0294 -0.1392 -0.0915
    1W        W58393  27.297   4.350   9.073  0.5157 -0.0604  0.0178
    1W        W58394   4.717   1.475   8.592  0.0855 -0.1888  0.2856
    1W        W58395  22.782  24.879   1.436 -0.1319  0.5554  0.2387
    1W        W58396  29.093  26.236   1.662 -0.1712 -0.0019  0.0608
    1W        W58397  20.173  24.375   1.458 -0.1608 -0.2989  0.0651
    1W        W58398   0.767  29.453   2.889  0.3370  0.3325 -0.1083
    1W        W58399   6.546   7.175   1.198 -0.1323  0.4290  0.0199
    1W        W58400   7.072  13.175   1.560  0.1017 -0.0999 -0.1234
    1W        W58401  22.481  28.759   1.732 -0.0731  0.5458  0.0037
    1W        W58402  27.780  11.420   8.207  0.0251 -0.1100  0.1522
    1W        W58403  27.894  11.873   8.334 -0.0375  0.1798  0.3840
    1W        W58404   1.412  13.165   6.477 -0.1330  0.0889 -0.2799
    1W        W58405  14.129   4.182   8.412 -0.0328  0.1996  0.0453
    1W        W58406  26.487  18.958   1.400  0.1269 -0.1376  0.0402
    1W        W58407  12.192  10.420   0.737 -0.1634  0.0062 -0.3148
    1W        W58408  20.114  10.747   0.843 -0.0870  0.0171 -0.0854
    1W        W58409  13.927   0.337   3.873  0.1554  0.0281  0.1090
    1W        W58410   9.085   5.975   2.944 -0.0023  0.0910 -0.2773
    1W        W58411   1.213  18.122   0.043  0.1668 -0.0324 -0.0642
    1W        W58412  20.161  20.072   9.176 -0.2245  0.1569  0.0421
    1W        W58413  16.905   0.394   0.280 -0.0939 -0.3409  0.0337
    1W        W58414  10.594  25.625   6.332 -0.0262 -0.0107 -0.0348
    1W        W58415  27.217  22.544   1.891  0.2171  0.2757  0.2180
    1W        W58416  21.545  22.600   7.286 -0.2384  0.2214  0.0165
    1W        W58417   0.845  10.133   7.599 -0.0098 -0.1624 -0.1102
    1W        W58418  18.323  24.811   1.125 -0.1202  0.0355  0.2407
    1W        W58419  23.412  23.437   0.663  0.0472  0.1676  0.1188
    1W        W58420  18.316  19.595   1.807 -0.1353 -0.2356 -0.0443
    1W        W58421   2.796  24.879   6.206  0.1755  0.0226  0.1878
    1W        W58422   4.129  25.090   9.118 -0.0296 -0.0808  0.2145
    1W        W58423  22.287  20.669   1.090  0.0134 -0.1402  0.1726
    1W        W58424  16.656   5.401   1.030  0.1823  0.0701 -0.2540
    1W        W58425   2.973  14.487   6.345 -0.4701  0.2015 -0.0418
    1W        W58426   4.677   2.309   2.468 -0.0840  0.2959  0.2157
    1W        W58427  29.665   5.096   8.651 -0.0389 -0.2644 -0.0450
    1W        W58428  17.386   5.344   0.422  0.0190  0.0011 -0.0142
    1W        W58429  18.548   8.975   7.245  0.0556 -0.1803 -0.2471
    1W        W58430   9.672  12.313   1.066  0.1551  0.4800  0.1065
    1W        W58431  25.009   2.862   0.924  0.1402 -0.0882 -0.0946
    1W        W58432   5.789   8.182   1.585  0.0125  0.1295  0.2096
    1W        W58433  19.770  23.054   7.016 -0.0346 -0.2350 -0.2838
    1W        W58434   8.803  14.107   7.050 -0.1247  0.1466  0.0127
    1W        W58435   6.495   0.384   3.492 -0.0437  0.2533  0.0357
    1W        W58436  18.852  26.918   7.022 -0.2444 -0.4723 -0.0931
    1W        W58437   3.650   8.951   7.336  0.2885 -0.1685 -0.0863
    1W        W58438  14.500  27.050   1.112  0.1146  0.3890 -0.0151
    1W        W58439  18.776  22.032   8.297  0.2664  0.0835 -0.0730
    1W        W58440  17.828  29.798   7.849 -0.0459 -0.0685 -0.0798
    1W        W58441  12.789  24.962   1.078 -0.1430 -0.2376 -0.0471
    1W        W58442  23.202  24.722   7.421 -0.2524  0.3807  0.1064
    1W        W58443  29.688  10.247   0.933 -0.0492 -0.0246 -0.1943
    1W        W58444   7.639  20.500   6.292  0.1093 -0.1522 -0.0000
    1W        W58445  13.788  17.952   8.525 -0.1599 -0.1230  0.0945
    1W        W58446  11.385  19.159   1.351 -0.1508 -0.2680 -0.0855
    1W        W58447  13.181  20.378   0.116 -0.0451 -0.2093 -0.1157
    1W        W58448  12.946   0.789   2.979  0.0858  0.2087  0.1522
    1W        W58449  25.975  12.502   9.182  0.0233 -0.5201 -0.0354
    1W        W58450  19.642   0.922   0.023  0.0902  0.0728 -0.3239
    1W        W58451  22.557  26.542   1.303 -0.1501  0.1563 -0.1429
    1W        W58452   0.699   9.002   8.635 -0.0050 -0.1916  0.0826
    1W        W58453  29.007  11.805   7.943  0.1158  0.1488 -0.2271
    1W        W58454   1.827   0.896   2.892 -0.0956  0.3258 -0.1542
    1W        W58455   7.936  14.558   8.391 -0.0328  0.3502 -0.0077
    1W        W58456  25.215   7.226   1.750 -0.0255 -0.1654 -0.3079
    1W        W58457  15.740  23.463   9.060 -0.0140 -0.1690  0.0114
    1W        W58458  23.834   8.832   1.202  0.0556  0.0204 -0.5260
    1W        W58459  19.150  27.751   8.791 -0.0780  0.0707 -0.0525
    1W        W58460   3.314  13.218   7.224 -0.5254  0.1631 -0.2019
    1W        W58461  24.519  12.729   0.903 -0.0268  0.0427  0.1345
    1W        W58462   7.722   8.809   2.423 -0.2071 -0.0198  0.0241
    1W        W58463  25.120  21.541   1.952  0.2178  0.0585 -0.4496
    1W        W58464  26.739  29.886   7.588 -0.1756  0.0031  0.4085
    1W        W58465  19.914   6.725   9.143  0.2034  0.0332  0.0074
    1W        W58466  29.167   0.708   6.191  0.0536  0.1449 -0.2002
    1W        W58467  11.000  13.066   2.458 -0.0532  0.1879  0.2554
    1W        W58468   9.338  28.924   8.707 -0.1269 -0.0096  0.2055
    1W        W58469  19.226  13.043   8.608  0.0126  0.0010  0.2331
    1W        W58470   1.075  17.606   1.197 -0.2070  0.1668  0.2144
    1W        W58471  12.584   8.528   2.202 -0.1762 -0.1072 -0.4425
    1W        W58472  27.916  24.685   9.130  0.1574  0.0129 -0.1527
    1W        W58473  11.797  28.628   6.991  0.0994 -0.0573  0.1163
    1W        W58474  12.893  28.265   9.120 -0.1259 -0.3122 -0.2610
    1W        W58475  24.537  26.229   2.322  0.2181  0.0745  0.1082
    1W        W58476  23.719  29.408   8.844  0.1633 -0.3518 -0.1584
    1W        W58477  27.777  15.990   1.320 -0.3107  0.1312  0.2869
    1W        W58478  27.070  27.771   0.494  0.2563 -0.0766  0.0102
    1W        W58479  17.559  29.581   6.626 -0.0134 -0.1297  0.3957
    1W        W58480  14.266  20.582   1.513  0.0232 -0.2695  0.1926
    1W        W58481   0.174   5.251   7.654  0.1490  0.0623  0.1153
    1W        W58482  14.316   2.398   2.360 -0.0713 -0.2982  0.1671
    1W        W58483  12.571  10.650   8.775  0.0884  0.0460  0.0528
    1W        W58484  18.947   0.001   9.349  0.0729 -0.0219  0.1856
    1W        W58485  20.715  13.495   9.309 -0.2043  0.2774 -0.0397
    1W        W58486  14.600   4.667   0.259 -0.1410  0.0953 -0.0313
    1W        W58487  14.020  20.850   1.883  0.1938  0.0222  0.0897
    1W        W58488   0.712  23.542   7.749  0.0812  0.2935  0.1925
    1W        W58489   1.695   2.371   0.455 -0.1143 -0.0446  0.1649
    1W        W58490   5.773  28.343   3.512  0.0761  0.1619 -0.0710
    1W        W58491  17.677  21.641   0.569 -0.0629 -0.2291  0.0878
    1W        W58492  28.016  10.694   0.836 -0.1141  0.3677 -0.3754
    1W        W58493  10.423  23.094   7.499  0.0629  0.0817  0.5018
    1W        W58494   0.993  11.085   2.451 -0.0919 -0.2158 -0.2241
    1W        W58495  12.923   1.129   8.583 -0.0091 -0.4020 -0.2723
    1W        W58496  19.301  29.548   0.198  0.2634 -0.2296  0.1852
    1W        W58497   7.219   4.213   2.842  0.2263 -0.3296  0.2306
    1W        W58498  11.451  11.581   2.300 -0.2135  0.3286  0.4341
    1W        W58499   2.948   2.762   7.063  0.2249 -0.2440 -0.0807
    1W        W58500   1.536  10.506   7.064 -0.1380  0.0259 -0.2742
    1W        W58501   7.784  25.276   8.900  0.3111 -0.1589  0.1342
    1W        W58502  28.211   6.574   8.090  0.0949 -0.2614  0.3102
    1W        W58503  25.610   4.994   9.304  0.2140 -0.0105 -0.2057
    1W        W58504   8.538  17.248   0.221  0.0898 -0.1086  0.4066
    1W        W58505   9.690  18.707   1.308 -0.2037 -0.2660  0.0337
    1W        W58506   6.247  26.607   0.292  0.1861  0.1328  0.1293
    1W        W58507  22.276  29.667   7.099  0.2763 -0.5429 -0.3335
    1W        W58508   3.284  22.452   7.356 -0.1275 -0.0821  0.1221
    1W        W58509  24.843  16.895   5.344  0.0937  0.4174  0.2277
    1W        W58510  11.523  16.248   1.097 -0.0734 -0.1101 -0.3195
    1W        W58511  18.971  25.076   0.086 -0.0688  0.0057 -0.6952
    1W        W58512  26.776  15.715   7.547 -0.4095  0.0375  0.0375
    1W        W58513  22.760  29.642   7.180  0.0618 -0.0435  0.0222
    1W        W58514  27.997  16.149   0.686  0.0961 -0.0208 -0.4573
    1W        W58515   8.248   2.119   1.702 -0.3052 -0.1092 -0.0391
    1W        W58516   3.906  24.119   1.904 -0.0375  0.0672  0.1493
    1W        W58517   7.721   0.829   2.207 -0.1272  0.0065 -0.0283
    1W        W58518  24.391  26.821   8.498 -0.0623  0.2361  0.4258
    1W        W58519  11.027   6.163   0.545 -0.1392  0.2172  0.1366
    1W        W58520  28.124  27.338   1.269  0.3225  0.1594  0.4995
    1W        W58521  17.173   3.332   9.338 -0.0864 -0.3718 -0.0597
    1W        W58522  26.817  25.460   0.662  0.0535 -0.3212  0.1053
    1W        W58523   9.639   8.130   7.907 -0.2437  0.0580  0.2103
    1W        W58524   7.866  19.545   8.793 -0.0469 -0.1666 -0.2494
    1W        W58525  16.264  15.949   1.326  0.2717  0.0498  0.3091
    1W        W58526   8.072  19.068   0.566 -0.1321 -0.0608 -0.1757
    1W        W58527  20.817  15.796   0.491  0.1569 -0.2107  0.1793
    1W        W58528  19.341  20.286   7.561 -0.0487  0.0602 -0.3188
    1W        W58529   2.952  22.787   5.621  0.0137 -0.2137 -0.4299
    1W        W58530  15.460  15.767   7.700  0.0318  0.3097  0.0445
    1W        W58531  18.232   6.049   1.663  0.0018 -0.2160 -0.1194
    1W        W58532  26.516  14.491   7.958  0.3363  0.1902 -0.0723
    1W        W58533  10.925  27.813   2.016  0.2197  0.0823  0.1812
    1W        W58534  11.389  21.752   2.028 -0.3041 -0.2549 -0.0562
    1W        W58535   4.382  26.069   6.142  0.0146  0.0894 -0.3387
    1W        W58536  12.459  26.863   0.226 -0.3761  0.0001  0.0368
    1W        W58537  26.363  16.781   6.580  0.3121 -0.0641  0.1120
    1W        W58538  27.654   7.797   8.705  0.1162  0.0926 -0.1890
    1W        W58539  17.526  14.785   1.475 -0.0127  0.0248 -0.0993
    1W        W58540  19.390  14.471   1.827 -0.1873  0.0509 -0.3196
    1W        W58541  20.620   7.414   7.123  0.0692 -0.2520 -0.1598
    1W        W58542  27.329  29.682   1.323 -0.3214  0.0587 -0.0100
    1W        W58543   6.013  10.951   1.702  0.0576  0.2511 -0.1172
    1W        W58544   7.575  25.796   7.680  0.0436  0.2585  0.0636
    1W        W58545   8.225  20.099   7.609 -0.0520 -0.1228  0.3459
    1W        W58546   5.711   4.539   0.641  0.1235  0.0005  0.0100
    1W        W58547   2.370   7.173   7.982 -0.2032 -0.0028 -0.0206
    1W        W58548  29.571  10.682   0.624  0.2277  0.2067 -0.1291
    1W        W58549  27.968  25.604   7.146 -0.2746 -0.3726  0.1539
    1W        W58550   1.747  22.995   6.288 -0.0359 -0.0033  0.2612
    1W        W58551  26.236  28.884   7.796 -0.1568  0.3989  0.0773
    1W        W58552  23.380  26.937   0.939 -0.1440 -0.2655 -0.1174
    1W        W58553  26.201  18.816   7.369  0.2765 -0.0882 -0.0080
    1W        W58554  26.965  25.101   2.349 -0.3057 -0.0770  0.2243
    1W        W58555  14.654   3.413   4.016  0.2800 -0.0892  0.2981
    1W        W58556  10.550  18.717   1.361  0.0895 -0.0262 -0.1891
    1W        W58557  11.967   5.761   2.122  0.0218  0.1692 -0.0847
    1W        W58558  18.068  15.158   1.754 -0.1398 -0.0562  0.1022
    1W        W58559  13.978   2.000   2.492  0.0103 -0.0575  0.2706
    1W        W58560  15.724  17.637   1.003 -0.1026 -0.0971 -0.0118
    1W        W58561  26.405  14.188   9.355  0.2519 -0.4424 -0.1206
    1W        W58562  18.169   5.750   3.410  0.3002  0.4231 -0.0237
    1W        W58563  25.741  28.817   1.360  0.0417  0.4260 -0.1056
    1W        W58564  27.945  17.000   0.405 -0.0414  0.2151  0.2913
    1W        W58565   1.747  28.506   2.518 -0.0256  0.2900 -0.1382
    1W        W58566  11.747  14.942   0.732  0.3881  0.0854 -0.2093
    1W        W58567  27.454  23.861   2.232  0.0467 -0.1265 -0.0891
    1W        W58568  10.272  16.682   7.904 -0.0006 -0.1253  0.1407
    1W        W58569   1.635  21.742   8.545 -0.1372  0.0312 -0.0748
    1W        W58570  20.299   7.050   0.954  0.4648  0.1088  0.0358
    1W        W58571  18.073  15.385   8.417 -0.0969  0.0434 -0.2392
    1W        W58572  13.775  15.154   0.337 -0.1083  0.1967 -0.1840
    1W        W58573   1.233  25.381   9.221 -0.1888  0.1154 -0.0266
    1W        W58574  11.125  27.049   8.616 -0.1382  0.1736  0.2168
    1W        W58575  11.479   7.315   2.539  0.0531  0.0927  0.4257
    1W        W58576  14.215  11.612   1.586 -0.0644  0.1274 -0.2058
    1W        W58577  25.399  12.778   1.870  0.1548  0.1958  0.1970
    1W        W58578   3.018  25.155   8.370  0.1295 -0.0730 -0.1715
    1W        W58579  29.050  19.013   1.581  0.1930 -0.0218  0.0657
    1W        W58580  10.799  14.466   9.146  0.2713  0.2683  0.0572
    1W        W58581  25.582  12.526   1.395  0.0557 -0.2284  0.1788
    1W        W58582   9.587   5.791   2.730 -0.1335 -0.1155 -0.1746
    1W        W58583   7.332  11.168   8.578 -0.1957  0.2145 -0.0045
    1W        W58584  14.645   8.051   7.557 -0.1833 -0.1246  0.0258
    1W        W58585   1.612  29.458   8.556  0.1238 -0.0763 -0.0918
    1W        W58586   4.241  19.621   7.916 -0.0935 -0.1674  0.1959
    1W        W58587  14.030   9.756   2.012 -0.1378 -0.0259 -0.3946
    1W        W58588  20.124  11.078   2.359  0.2960 -0.1652  0.1852
    1W        W58589   7.371  10.515   3.951 -0.2714  0.0192 -0.1282
    1W        W58590   4.219  26.816   0.550  0.1111  0.1458  0.0411
    1W        W58591  19.228   9.616   8.067  0.1821  0.0750 -0.2566
    1W        W58592  18.689   3.876   9.026  0.3227  0.0328 -0.1569
    1W        W58593  17.966  26.724   2.409 -0.0425 -0.0558  0.3906
    1W        W58594  17.605  14.074   9.078 -0.2431 -0.1068 -0.1339
    1W        W58595  21.413  19.261   9.266 -0.2262 -0.4070 -0.2326
    1W        W58596  12.065   4.275   8.893 -0.0913  0.1078 -0.2322
    1W        W58597   7.428  19.019   7.199 -0.0622  0.2019  0.0313
    1W        W58598  17.014  17.288   9.022 -0.0728  0.1194  0.0878
    1W        W58599   6.202  10.271   3.314  0.0829  0.0187 -0.0521
    1W        W58600  18.256  28.087   3.657 -0.1763  0.0249 -0.3840
    1W        W58601  12.304  16.501   1.696  0.2148  0.3371 -0.0512
    1W        W58602  16.457   2.596   7.172  0.2776  0.0708  0.0073
    1W        W58603  14.427  24.955   6.879 -0.2371  0.0956  0.2148
    1W        W58604   5.499  13.029   1.420  0.1081 -0.1614 -0.2812
    1W        W58605  17.858  29.646   2.670  0.1860  0.0270 -0.0635
    1W        W58606  28.608  28.474   0.941  0.0639 -0.1956  0.1179
    1W        W58607  17.721  27.162   8.391 -0.0879  0.0086 -0.2088
    1W        W58608  14.316   5.438   4.073 -0.2053 -0.1355  0.0159
    1W        W58609  17.543  13.330   7.059  0.0880 -0.1730  0.0611
    1W        W58610  10.412   4.571   2.344  0.1197 -0.4533 -0.0314
    1W        W58611   9.725  21.247   9.377  0.2224 -0.0511 -0.0147
    1W        W58612  22.992  19.478   8.543 -0.2435 -0.2349 -0.0268
    1W        W58613  13.454  29.804   8.464  0.1682  0.2714  0.1155
    1W        W58614   5.333  26.899   2.065 -0.3279  0.3564  0.0514
    1W        W58615   9.822   0.977   8.994 -0.1383  0.0926 -0.4111
    1W        W58616  29.311  23.497   1.271  0.0138  0.1703 -0.0998
    1W        W58617  27.109  14.006   7.875  0.2720  0.0954  0.2756
    1W        W58618   0.012  26.272   8.543 -0.0639 -0.1943 -0.1461
    1W        W58619  22.781  21.439   8.688  0.3900 -0.2099 -0.2050
    1W        W58620   8.763  14.648   8.011  0.0997  0.1386 -0.3147
    1W        W58621  15.774  13.488   1.266  0.1334 -0.0874 -0.1185
    1W        W58622  17.322   3.211   0.579  0.0306 -0.1683 -0.0362
    1W        W58623  24.464  17.409   6.925  0.0701 -0.1576 -0.3793
    1W        W58624  14.077   8.174   8.749  0.1401 -0.0589  0.0605
    1W        W58625   2.393   5.035   8.915 -0.0207  0.1106  0.0164
    1W        W58626  25.644  24.421   8.813 -0.1705  0.1074  0.2397
    1W        W58627   6.170   3.315   2.087  0.1719 -0.1010 -0.0941
    1W        W58628  11.936  22.109   1.647 -0.3496  0.0244 -0.0541
    1W        W58629  11.642  28.703   0.105  0.3154 -0.0496 -0.0756
    1W        W58630   7.868   6.524   7.383 -0.1074 -0.0059 -0.2262
    1W        W58631  13.373  23.894   7.715  0.1370  0.1304  0.1603
    1W        W58632   4.893   4.609   7.863  0.0479 -0.4298 -0.1034
    1W        W58633   0.179  12.024   8.396  0.2616  0.1253 -0.3265
    1W        W58634  11.316  13.910   6.828 -0.1747  0.2105 -0.0483
    1W        W58635  12.599  20.020   2.414 -0.1399 -0.0319 -0.5554
    1W        W58636  28.707   3.108   7.069  0.2848  0.2743  0.0530
    1W        W58637  19.895   1.514   2.722 -0.0936 -0.1467 -0.2179
    1W        W58638  14.536  11.319   2.848  0.0113  0.1163 -0.2471
    1W        W58639  18.677  18.947   8.772 -0.1535  0.0471  0.1365
    1W        W58640  29.089  18.967   9.017  0.5694 -0.0795 -0.1187
    1W        W58641  15.959  28.921   0.084 -0.0409  0.1987 -0.1909
    1W        W58642  14.394  17.513   0.702 -0.0382 -0.0033 -0.3327
    1W        W58643  23.144  27.558   0.033  0.1777 -0.1732 -0.0855
    1W        W58644  20.713   9.906   7.915 -0.0065 -0.0448 -0.1515
    1W        W58645   9.592  15.629   1.687 -0.0871  0.2232 -0.0187
    1W        W58646   3.090  23.484   8.398  0.0829  0.1801 -0.1863
    1W        W58647  14.964  18.040   1.524  0.1217 -0.3249  0.0021
    1W        W58648   4.659  27.038   0.351  0.1209 -0.2882  0.0700
    1W        W58649  21.048  27.182   6.051  0.0311 -0.3064 -0.1772
    1W        W58650   4.173  13.982   8.637  0.0779  0.2561 -0.0326
    1W        W58651  22.959   2.638   6.426  0.0355 -0.2248  0.3450
    1W        W58652  22.258  26.602   0.865  0.2672  0.2946 -0.0222
    1W        W58653  15.713   3.628   2.777 -0.1747 -0.1345  0.1603
    1W        W58654   0.528  13.307   8.085 -0.0270 -0.2710  0.1121
    1W        W58655   5.584  19.270   7.700 -0.0421  0.2845  0.1493
    1W        W58656  19.519   7.471   1.181  0.1219  0.4782  0.0656
    1W        W58657   6.626   7.576   7.324  0.2732 -0.0398  0.1550
    1W        W58658   1.064  27.838   9.162 -0.0086 -0.0830 -0.0340
    1W        W58659   5.696  21.643   7.962  0.1737 -0.2101  0.2357
    1W        W58660   1.343  29.401   1.630  0.0369  0.1417 -0.1825
    1W        W58661   1.933  26.092   8.147 -0.1270  0.0765 -0.1112
    1W        W58662  28.157  11.376   6.083 -0.0045 -0.2163 -0.0379
    1W        W58663   2.250  18.971   0.597  0.1880  0.1747  0.0495
    1W        W58664   3.210   0.135   8.975 -0.0526 -0.2751 -0.0992
    1W        W58665  22.556  24.242   7.118 -0.1629 -0.3410  0.1222
    1W        W58666  23.468  29.753   8.414 -0.1729 -0.4894 -0.0465
    1W        W58667  22.302   3.740   2.603  0.0390 -0.0235  0.3380
    1W        W58668  17.860   4.637   7.938  0.0235 -0.0719  0.1420
    1W        W58669   8.479  22.911   8.913  0.2687  0.3225  0.4122
    1W        W58670  24.226   5.225   1.725  0.0604 -0.4282  0.1581
    1W        W58671   8.683  27.136   7.815  0.1921  0.2781 -0.2973
    1W        W58672  23.925  25.530   7.125  0.4068 -0.1024  0.0197
    1W        W58673  19.487   2.961   6.867 -0.1424 -0.0582 -0.2359
    1W        W58674  10.181  17.963   8.851 -0.0228 -0.0606 -0.0267
    1W        W58675  11.274  18.417   0.385  0.1889 -0.1815 -0.1928
    1W        W58676   9.946   9.335   3.164 -0.0532 -0.1268  0.0335
    1W        W58677  12.458  17.285   7.764 -0.1611 -0.5480  0.2679
    1W        W58678  27.132   2.510   7.451 -0.2223  0.3813  0.0970
    1W        W58679   6.735  20.553   8.557  0.3388 -0.0463 -0.1810
    1W        W58680  12.636   0.141   7.799  0.3161 -0.0001  0.0885
    1W        W58681  24.030  14.483   1.058  0.3356  0.0527  0.0132
    1W        W58682  24.196  16.332   0.430 -0.0267  0.0583 -0.1509
    1W        W58683  13.847   5.639   2.247  0.3805 -0.2690 -0.1743
    1W        W58684  20.269   7.010   7.296 -0.1485 -0.3110 -0.0566
    1W        W58685  24.324  29.986   2.331 -0.0088  0.2449 -0.0384
    1W        W58686  23.871   0.037   2.282  0.3649  0.2380 -0.1083
    1W        W58687  26.372   9.061   2.593 -0.0609 -0.2819 -0.0314
    1W        W58688  25.521  16.872   9.388 -0.2659 -0.2404  0.0649
    1W        W58689   9.366  12.187   0.312  0.0285  0.1805 -0.4229
    1W        W58690   6.159  23.865   0.315  0.2394 -0.1798  0.1081
    1W        W58691   5.983  12.181   1.385  0.0997  0.1248 -0.1152
    1W        W58692   1.434  10.638   5.574  0.2022 -0.0648 -0.2101
    1W        W58693  27.512  29.379   0.916 -0.2248  0.3505 -0.2532
    1W        W58694  12.385  10.478   2.964  0.0309 -0.0747  0.0254
    1W        W58695  28.765  25.385   1.474  0.1422  0.1057  0.0875
    1W        W58696  27.477  23.365   2.892  0.1111  0.0514  0.1525
    1W        W58697  14.069  23.331   0.814  0.0210 -0.1070  0.4158
    1W        W58698  17.849  26.729   8.067  0.1964  0.2133 -0.0097
    1W        W58699   9.077   0.118   0.808 -0.0639  0.1026  0.1055
    1W        W58700  19.870  24.821   1.397  0.1461 -0.1635  0.2015
    1W        W58701  29.670  18.675   5.869  0.2411  0.1671 -0.1938
    1W        W58702   3.168   1.418   7.865  0.3823 -0.1133  0.0794
    1W        W58703  18.779  17.599   8.059 -0.2242 -0.1000 -0.1649
    1W        W58704   7.532  27.803   8.697  0.0322 -0.0574 -0.2302
    1W        W58705   8.351  10.960   3.070  0.0274  0.3148  0.0611
    1W        W58706   1.968  27.709   0.515 -0.0979  0.2153 -0.2239
    1W        W58707  16.774  20.877   1.082  0.2020 -0.0700  0.1303
    1W        W58708  20.617  22.328   8.554  0.1950 -0.4170 -0.2970
    1W        W58709  28.308  29.158   2.866 -0.2930 -0.0401 -0.4336
    1W        W58710  27.772   8.864   1.824 -0.1889  0.1952  0.2785
    1W        W58711  23.250   3.744   3.161  0.2939  0.0613  0.1107
    1W        W58712   5.852  20.299   0.119 -0.0795 -0.1922  0.0276
    1W        W58713  12.436  20.645   0.496  0.0702 -0.0639  0.2312
    1W        W58714  21.105  26.251   1.425  0.0929  0.0261  0.0471
    1W        W58715  24.729  18.815   9.364 -0.1098 -0.1517 -0.3435
    1W        W58716  11.281  22.853   7.104 -0.0515 -0.0114 -0.0831
    1W        W58717  15.318  17.996   1.955  0.1088  0.0495 -0.0601
    1W        W58718  25.066  16.863   8.588 -0.0089  0.1209 -0.3783
    1W        W58719  14.472   2.646   7.797 -0.1455  0.4570 -0.1115
    1W        W58720   9.821  16.288   2.254  0.1220  0.1696 -0.1061
    1W        W58721   5.306   4.295   8.596 -0.0405  0.1575  0.3001
    1W        W58722  24.562  27.016   1.424  0.1902 -0.1347  0.1585
    1W        W58723  15.561  10.762   7.102 -0.0189 -0.0896 -0.0103
    1W        W58724   2.978  15.739   8.239 -0.3346  0.1811 -0.1728
    1W        W58725  20.851  28.694   8.841 -0.1803  0.3646  0.2916
    1W        W58726   1.693  29.261   2.912 -0.2307 -0.0988 -0.1885
    1W        W58727  26.675   2.378   0.667 -0.2126  0.1283  0.3732
    1W        W58728  15.579   8.510   9.364 -0.0014  0.1262  0.0698
    1W        W58729  17.530  10.831   7.410  0.0398  0.0903 -0.1371
    1W        W58730  23.028   3.792   7.780  0.0195  0.0027  0.2415
    1W        W58731  10.453  24.217   8.781  0.2447 -0.0226 -0.0335
    1W        W58732  10.483   1.706   1.719  0.2502  0.4557 -0.2340
    1W        W58733  28.438   0.576   7.483  0.0002 -0.0317  0.1134
    1W        W58734  28.153  10.766   1.527  0.0270 -0.0668  0.1678
    1W        W58735  17.863  19.307   8.595 -0.0540  0.0039  0.0284
    1W        W58736  22.150  29.407   0.935  0.0631 -0.2823 -0.1104
    1W        W58737  11.671  27.858   2.080 -0.1816 -0.1306  0.1078
    1W        W58738   8.420  22.607   1.589  0.1235 -0.1393 -0.2832
    1W        W58739  22.408   7.937   7.363  0.1551  0.1744 -0.1130
    1W        W58740  20.290   9.333   0.529 -0.2853  0.1038 -0.2977
    1W        W58741  19.387  22.240   7.006  0.0690 -0.2252  0.1619
    1W        W58742   1.048  27.822   0.283  0.0828 -0.0260 -0.2843
    1W        W58743  11.643  20.621   9.023 -0.0213 -0.0498 -0.1634
    1W        W58744  29.879  25.176   2.053  0.0457 -0.0882  0.2303
    1W        W58745  23.832  28.653   6.020  0.2659 -0.0532  0.0336
    1W        W58746  17.730   9.440   7.725  0.1528  0.1204  0.0875
    1W        W58747  15.355   0.740   2.874  0.1090 -0.1430 -0.0843
    1W        W58748  25.206  11.974   8.240  0.0868  0.1672 -0.0411
    1W        W58749  27.408  29.218   7.458  0.1382 -0.0829 -0.1337
    1W        W58750   8.645   0.567   7.182 -0.0596 -0.1325 -0.1639
    1W        W58751   0.197  30.100   0.788 -0.1485  0.0860 -0.1454
    1W        W58752  18.699   1.353   0.941  0.2639 -0.0125 -0.0690
    1W        W58753   4.565  21.462   4.990 -0.1083  0.0020 -0.3653
    1W        W58754  22.560  30.105   7.378  0.0498 -0.1929  0.1852
    1W        W58755  25.000  19.104   7.882 -0.0564 -0.1001 -0.4495
    1W        W58756   7.096  26.920   1.228 -0.1447  0.0563 -0.1713
    1W        W58757  24.891  29.407   6.582  0.0822  0.1914 -0.1367
    1W        W58758  18.311  25.604   1.822  0.2071  0.0092 -0.2016
    1W        W58759  17.416   5.872   1.817 -0.0999  0.0852  0.0210
    1W        W58760  21.021  27.125   2.632 -0.3434  0.1500 -0.0891
    1W        W58761  13.475  17.998   1.826 -0.1836  0.1000  0.1677
    1W        W58762  25.388  10.254   0.965  0.0034  0.0352  0.1869
    1W        W58763  27.839  11.685   0.981 -0.3448 -0.1250 -0.2643
    1W        W58764   4.858   4.591   1.059 -0.0378  0.4635 -0.0481
    1W        W58765  29.277  28.094   1.004  0.1540 -0.0249 -0.1494
    1W        W58766  16.753  11.181   2.350 -0.1221 -0.0414 -0.1548
    1W        W58767  28.463   6.230   0.126  0.3686 -0.1097 -0.2726
    1W        W58768  12.221   8.078   1.320  0.3291  0.1749 -0.1584
    1W        W58769  12.428  19.994   7.793 -0.0245 -0.0176  0.0105
    1W        W58770   7.097  11.298   0.319  0.0527 -0.4218 -0.4564
    1W        W58771  13.209  18.612   7.821  0.1692 -0.3241  0.1113
    1W        W58772  19.463  14.977   7.209 -0.2466 -0.1100  0.1433
    1W        W58773  24.972   4.748   2.062  0.0617 -0.1984 -0.1527
    1W        W58774  16.356   6.052   4.039  0.0491  0.0815  0.1193
    1W        W58775   0.554  17.454   8.819 -0.3742  0.1449  0.1959
    1W        W58776  16.762   0.774   1.999 -0.0403  0.0549  0.1090
    1W        W58777   0.453  26.289   6.625  0.4048 -0.1720  0.1447
    1W        W58778  13.591  23.005   6.643 -0.0791 -0.0827  0.0271
    1W        W58779   3.863   3.801   6.819  0.0016  0.0309 -0.3768
    1W        W58780   7.594   3.538   1.481 -0.3355 -0.4620  0.0561
    1W        W58781   2.085  14.400   8.037 -0.2747  0.2368 -0.0636
    1W        W58782  21.825  13.807   9.355  0.0781 -0.2061  0.1479
    1W        W58783  10.782   5.445   8.738 -0.1018  0.3061 -0.0609
    1W        W58784  13.635  14.768   9.364  0.1733  0.0098  0.1383
    1W        W58785  28.714  16.960   9.044 -0.2293 -0.2616  0.0587
    1W        W58786   9.434   1.753   2.746  0.0019 -0.3852  0.1662
    1W        W58787   9.079  20.200   8.713 -0.0974 -0.2148  0.0054
    1W        W58788   1.041   7.020   1.152 -0.2362 -0.1882 -0.1061
    1W        W58789   8.611  10.470   8.755 -0.1778 -0.0558  0.1088
    1W        W58790  19.243  21.691   9.198  0.4310  0.1070  0.1380
    1W        W58791  18.405   3.380   1.609  0.1724 -0.0334 -0.0454
    1W        W58792   5.705  26.682   1.813  0.0343  0.0038 -0.1821
    1W        W58793   8.933   6.151   0.531  0.0981  0.2746 -0.2702
    1W        W58794   5.803  24.226   7.076  0.1997 -0.3825  0.0126
    1W        W58795  12.585  19.543   1.048  0.0137  0.0755  0.4360
    1W        W58796  14.867  13.950   2.106 -0.0192  0.2117 -0.3402
    1W        W58797  26.950  25.858   6.671 -0.1615 -0.1279  0.0573
    1W        W58798   2.357  15.709   7.593 -0.4882 -0.2620  0.2142
    1W        W58799   5.212   8.128   8.985 -0.0747 -0.3086 -0.1406
    1W        W58800   0.800   7.258   8.902  0.1538  0.1900 -0.0054
    1W        W58801  11.028  26.091   7.697  0.1458 -0.1355 -0.1883
    1W        W58802  16.470  18.515   2.004 -0.2367 -0.1360  0.1840
    1W        W58803   2.836  13.839   7.859 -0.4725  0.1865 -0.0318
    1W        W58804   4.303  16.004   0.621  0.1670 -0.4764 -0.2200
    1W        W58805  27.000   0.654   6.274 -0.0847 -0.2530  0.2059
    1W        W58806   2.088   2.300   0.108 -0.3385 -0.1295  0.3003
    1W        W58807  29.372  29.546   8.778  0.0011  0.1783  0.3383
    1W        W58808   3.715  19.932   7.233 -0.1023  0.0898 -0.0555
    1W        W58809  26.917  26.104   9.243  0.3262 -0.2752 -0.1213
    1W        W58810  24.574   2.622   9.026  0.0536 -0.0881  0.2955
    1W        W58811   5.845   3.691   1.882 -0.3204 -0.0676 -0.1866
    1W        W58812   1.456  13.203   6.020  0.2749  0.0246  0.0696
    1W        W58813  23.636  15.608   0.022  0.2856  0.0316 -0.1286
    1W        W58814  12.861  21.735   7.283 -0.0535 -0.1102 -0.1462
    1W        W58815  23.710  13.438   7.090 -0.0349  0.2132  0.2228
    1W        W58816  28.238  27.908   0.910 -0.0429 -0.2223 -0.0197
    1W        W58817  18.865  16.776   8.279 -0.2342  0.0742  0.2445
    1W        W58818  17.580  20.384   1.191  0.0870 -0.0823 -0.0629
    1W        W58819  29.696  12.604   6.609  0.1263  0.0507 -0.5487
    1W        W58820   0.147   6.469   7.031  0.1898 -0.1576  0.2620
    1W        W58821   5.965  24.271   0.597 -0.1012  0.1370  0.3150
    1W        W58822  25.840  13.762   2.095 -0.0453  0.0071 -0.1249
    1W        W58823  11.111  14.101   0.620  0.1769  0.0140  0.0397
    1W        W58824  18.646   7.286   1.048 -0.1915 -0.3215  0.3815
    1W        W58825   3.309   6.867   7.748 -0.0222  0.1763  0.3089
    1W        W58826   0.342  12.510   9.265  0.3148  0.1081  0.2653
    1W        W58827  26.285  16.853   5.503  0.2852 -0.0563 -0.1797
    1W        W58828  19.302  11.326   1.254  0.1404  0.1008  0.0633
    1W        W58829  16.898  15.637   9.395 -0.2919  0.2049 -0.0223
    1W        W58830  25.939  22.639   8.066 -0.0236 -0.1831 -0.0306
    1W        W58831  19.831  18.277   8.374  0.0206  0.1287 -0.0228
    1W        W58832  24.143  14.047   9.013 -0.0635  0.2737  0.0652
    1W        W58833  17.677  22.094   8.088  0.1268 -0.2410  0.0022
    1W        W58834   0.857  29.263   7.845  0.3604  0.0163  0.0045
    1W        W58835  18.508   5.108   7.276  0.1132  0.2155 -0.0257
    1W        W58836   1.460  27.017   1.356  0.0835 -0.0900 -0.1403
    1W        W58837  14.665   3.144   2.364  0.1227  0.2752  0.2266
    1W        W58838  26.121  12.183   5.938  0.0613 -0.1835  0.1816
    1W        W58839   5.182  22.095   7.814  0.0419  0.0552  0.3762
    1W        W58840  20.760   3.541   2.335 -0.4453 -0.1404  0.2161
    1W        W58841  27.023  11.912   0.467  0.0128 -0.0794  0.1477
    1W        W58842   2.948  24.439   6.532 -0.3708  0.3018  0.0532
    1W        W58843   7.431  15.403   8.025 -0.0461 -0.0516 -0.4454
    1W        W58844  27.581   6.096   6.470  0.1512 -0.0026  0.1861
    1W        W58845  21.492  13.399   6.611  0.1308  0.0948  0.0103
    1W        W58846   2.726  20.843   0.293  0.1929  0.0545  0.2316
    1W        W58847  17.799   5.297   8.647 -0.0972  0.1109 -0.3074
    1W        W58848  26.328  12.239   8.912 -0.2187 -0.0355 -0.0019
    1W        W58849  22.038  21.213   2.376 -0.1987 -0.2511  0.1817
    1W        W58850  18.579  11.773   2.262  0.1978  0.1437  0.2224
    1W        W58851  26.388   8.943   6.874 -0.2370  0.0772 -0.0590
    1W        W58852  14.491   9.002   8.040 -0.1233  0.0925 -0.0195
    1W        W58853  28.145  10.854   6.823  0.1501  0.2745  0.2641
    1W        W58854  29.142   7.265   0.562 -0.0578  0.2050  0.0041
    1W        W58855   5.450  20.430   9.279 -0.1633  0.0384  0.2397
    1W        W58856   4.725  28.500   2.774 -0.0271 -0.0942 -0.1117
    1W        W58857  24.582  10.265   8.114 -0.1403 -0.1342  0.2507
    1W        W58858  15.682  20.642   2.790  0.0508 -0.3352  0.2000
    1W        W58859   1.489  27.946   8.775 -0.3119 -0.0835  0.1848
    1W        W58860   5.719  18.613   6.787  0.1041 -0.0689 -0.0012
    1W        W58861  26.283  28.146   0.098 -0.0426 -0.0576 -0.1168
    1W        W58862  13.463  21.436   1.018 -0.0898 -0.1098 -0.0357
    1W        W58863   2.443  14.573   9.362  0.2074  0.0677 -0.0578
    1W        W58864   6.405  17.495   8.398  0.4951 -0.0356 -0.1030
    1W        W58865   8.324  17.779   0.192  0.1690  0.0423  0.0401
    1W        W58866   8.149   1.115   0.930 -0.0622  0.1021  0.3977
    1W        W58867  28.568  27.965   8.197 -0.1425 -0.0725 -0.2120
    1W        W58868  11.609  10.627   8.825  0.0020 -0.1885 -0.0691
    1W        W58869   7.739  23.996   2.007 -0.0149  0.1940 -0.0588
    1W        W58870  14.074  23.934   1.496 -0.0009  0.0312 -0.0519
    1W        W58871  21.282  25.589   0.624 -0.3927 -0.1935 -0.1925
    1W        W58872   7.337  22.695   2.214 -0.0377 -0.0523  0.0330
    1W        W58873  10.855   4.071   7.149 -0.0568  0.0944 -0.0914
    1W        W58874   4.592   6.816   8.548 -0.3016  0.1734 -0.0112
    1W        W58875   1.011  23.828   0.473 -0.1620 -0.2625  0.0050
    1W        W58876  24.456  25.791   8.397  0.0196  0.0812  0.0782
    1W        W58877  15.528  18.392   1.245 -0.0590  0.0895  0.0986
    1W        W58878  27.284  21.152   0.294  0.3478  0.0178 -0.0287
    1W        W58879  11.430   6.962   0.767 -0.2020 -0.1212 -0.0144
    1W        W58880  22.027  10.255   7.161 -0.2967 -0.1051 -0.0083
    1W        W58881  29.479  21.262   0.729 -0.0362  0.0831  0.2329
    1W        W58882  13.161  17.665   0.101 -0.0139  0.0904  0.0739
    1W        W58883   5.517  10.064   1.548  0.1524 -0.1244 -0.1550
    1W        W58884  22.531   9.723   8.969  0.0651 -0.0160 -0.1228
    1W        W58885  24.089  23.341   0.770  0.0111 -0.2990 -0.0380
    1W        W58886  14.764  29.278   2.605  0.2562  0.1205 -0.0608
    1W        W58887   7.406  28.921   2.507  0.3248 -0.0293  0.1638
    1W        W58888  12.356  17.104   8.215 -0.3472  0.2214  0.0347
    1W        W58889   6.008   0.592   3.418  0.0574  0.0893  0.2550
    1W        W58890  16.212  24.053   7.272  0.2158  0.0052 -0.1162
    1W        W58891  21.312   6.605   1.975  0.2373 -0.1699 -0.1532
    1W        W58892  16.496  20.394   1.133  0.2991  0.1753 -0.1304
    1W        W58893  21.911  28.491   8.808  0.1511  0.0705  0.3258
    1W        W58894  17.964  11.642   7.648 -0.1929  0.1533  0.0456
    1W        W58895  23.714  19.442   8.070 -0.0952  0.3127  0.0349
    1W        W58896  28.538   7.411   1.075  0.0585 -0.1308 -0.1464
    1W        W58897  13.689   6.025   3.649 -0.1128  0.0056 -0.0326
    1W        W58898  11.519  21.280   0.899  0.0459  0.0075 -0.0308
    1W        W58899   1.401  17.547   6.763 -0.3385  0.2937 -0.1360
    1W        W58900  15.115  23.447   7.043 -0.1862 -0.2447  0.0668
    1W        W58901   7.988  27.630   8.256 -0.0744 -0.2475  0.0741
    1W        W58902  26.636   2.296   1.877 -0.0265 -0.1312  0.0494
    1W        W58903   9.848   9.750   2.361  0.0023  0.3761  0.2310
    1W        W58904  14.609  15.636   0.025 -0.2453  0.2895  0.2363
    1W        W58905   4.285   9.597   6.886  0.0870  0.0931  0.0197
    1W        W58906   5.455  20.282   7.686 -0.3059  0.0766 -0.1724
    1W        W58907  19.025   8.276   7.208  0.1232 -0.1259  0.4069
    1W        W58908  15.498   1.753   8.420 -0.3328  0.1330  0.0088
    1W        W58909  14.301  13.495   9.122 -0.0351 -0.1244 -0.0400
    1W        W58910  24.727   9.270   0.077  0.1130  0.2927  0.0223
    1W        W58911  13.129  27.994   0.123 -0.1814 -0.0826 -0.0498
    1W        W58912  14.932  28.127   0.753  0.1078  0.1372  0.1299
    1W        W58913  19.056  22.445   0.958  0.2018  0.1525 -0.0159
    1W        W58914   9.454  28.361   0.769 -0.3106  0.0577 -0.2844
    1W        W58915  17.929   8.272   7.481  0.1609 -0.3646 -0.0488
    1W        W58916  24.130  23.512   1.279  0.1609  0.0848  0.0313
    1W        W58917  15.355   2.022   2.915  0.1341  0.0139 -0.0034
    1W        W58918  25.442   6.303   9.217  0.2181 -0.1768  0.1282
    1W        W58919  18.351   4.180   2.415  0.0733 -0.2438  0.1593
    1W        W58920  25.074  13.996   9.336 -0.1054  0.4518  0.0820
    1W        W58921  11.405  15.625   1.636  0.1574  0.2527  0.1485
    1W        W58922  28.946  25.094   8.190 -0.0260 -0.0520 -0.0921
    1W        W58923  28.168  25.012   2.049 -0.0412  0.1552 -0.1370
    1W        W58924  12.461   8.942   7.710  0.0962  0.0585 -0.0856
    1W        W58925  18.298  19.011   8.489  0.0536 -0.0201 -0.1250
    1W        W58926   3.964  11.094   8.627 -0.2177  0.2077  0.3953
    1W        W58927   1.612  13.764   9.040 -0.2161 -0.0725 -0.1291
    1W        W58928  28.373   5.315   6.549 -0.2155 -0.2129 -0.1540
    1W        W58929   1.033   5.171   7.600  0.0747  0.2321 -0.2289
    1W        W58930  26.409   5.954   9.332  0.0258  0.6397 -0.1048
    1W        W58931  14.802  10.877   8.133  0.0472  0.0687 -0.2058
    1W        W58932  13.562   6.464   4.048 -0.0614 -0.1768  0.0162
    1W        W58933  19.417   3.881   1.759  0.1373 -0.0711 -0.2424
    1W        W58934   3.452   4.847   1.488  0.4996  0.1576  0.1806
    1W        W58935   8.313  20.500   9.297 -0.1478  0.4271 -0.3344
    1W        W58936  29.644  16.588   1.586  0.3072 -0.2332 -0.1444
    1W        W58937  20.149  17.475   1.540  0.0779  0.0635 -0.0489
    1W        W58938   1.427   3.575   1.340  0.1987 -0.0962 -0.0851
    1W        W58939   1.989   7.007   1.455  0.2306  0.2034 -0.2200
    1W        W58940  18.823   0.870   2.019 -0.1726  0.1126 -0.0305
    1W        W58941  11.469  20.505   0.081  0.3340  0.1249  0.1406
    1W        W58942   9.508   4.562   3.205  0.0955  0.1829  0.0481
    1W        W58943  27.622   2.675   0.298 -0.1202  0.1178 -0.2312
    1W        W58944  14.284  21.776   7.881 -0.1957 -0.1176  0.0781
    1W        W58945  29.704  11.141   1.548  0.0558 -0.3278  0.1966
    1W        W58946   7.905   0.265   1.515 -0.0179  0.0306  0.0822
    1W        W58947   5.736  26.940   1.395  0.1029 -0.0403  0.0628
    1W        W58948  18.237   5.181   2.002 -0.4692  0.2902  0.0112
    1W        W58949  27.720  11.175   5.909 -0.2314  0.1042  0.3048
    1W        W58950  16.145  20.099   0.882  0.1592 -0.1107 -0.1701
    1W        W58951  15.394   0.404   1.611  0.2024  0.1525 -0.0076
    1W        W58952  22.441   0.917   2.059 -0.1486  0.4644 -0.0525
    1W        W58953  25.398   9.274   2.017 -0.1491  0.1075  0.0053
    1W        W58954  19.759  11.410   1.030 -0.1633 -0.0206 -0.2446
    1W        W58955   0.446  20.482   5.669  0.0108  0.0658  0.1034
    1W        W58956   3.605   8.982   0.547  0.5491 -0.0368 -0.0444
    1W        W58957   5.862  13.117   0.657 -0.0042  0.1013 -0.0605
    1W        W58958  26.242  13.740   1.124 -0.0264  0.0230 -0.1137
    1W        W58959  25.696  29.808   7.644  0.0294  0.2640 -0.0807
    1W        W58960  22.660   9.678   1.855  0.0933 -0.1234  0.2422
    1W        W58961  22.083  21.386   0.501 -0.0358  0.0982  0.1097
    1W        W58962  20.121  19.542   9.037  0.0129  0.0850 -0.0139
    1W        W58963  12.343  27.839   7.938 -0.0544 -0.1050 -0.1230
    1W        W58964  14.601   4.521   3.152  0.1072 -0.2031 -0.1648
    1W        W58965  12.602  20.538   1.446 -0.1543  0.1738 -0.2290
    1W        W58966  16.682   9.207   1.550 -0.0144  0.0712 -0.0736
    1W        W58967  24.858   5.032   6.666  0.1351  0.1348  0.3535
    1W        W58968  11.651  13.925   1.873 -0.2127 -0.1456  0.3390
    1W        W58969  10.618  16.652   8.504  0.2446  0.0098 -0.1620
    1W        W58970   6.905  22.983   7.846  0.1259  0.1858 -0.3315
    1W        W58971  20.442   1.093   0.606  0.3636 -0.0128  0.2211
    1W        W58972   6.223  16.311   2.171  0.0988  0.3355 -0.0526
    1W        W58973  11.744   8.976   2.130  0.0169 -0.4202  0.3054
    1W        W58974  16.753   7.998   1.090  0.4782  0.1984  0.1282
    1W        W58975  22.320   9.248   8.807 -0.1080  0.0788 -0.0879
    1W        W58976   1.071   7.178   8.493 -0.0391 -0.1666  0.0272
    1W        W58977  20.503   1.204   9.391 -0.3157 -0.3669 -0.0245
    1W        W58978   4.856   6.033   0.740  0.1712 -0.1095 -0.0954
    1W        W58979   1.602  27.622   2.492  0.3067  0.2021  0.4899
    1W        W58980  19.525   9.653   2.277 -0.1660  0.1517  0.0979
    1W        W58981   9.819  17.161   9.283  0.1022 -0.1102  0.0111
    1W        W58982  20.013  24.609   0.841 -0.1840 -0.2187  0.0677
    1W        W58983  19.585   3.854   7.504 -0.3866 -0.1709 -0.2074
    1W        W58984  13.369  11.381   0.313  0.1468  0.2075 -0.1423
    1W        W58985  10.198  15.264   8.247  0.3008  0.0181  0.2190
    1W        W58986   1.493   3.724   2.910  0.0448  0.1147 -0.0213
    1W        W58987  12.365  21.622   8.122  0.2051  0.3042 -0.0997
    1W        W58988   6.453  13.576   7.919  0.0431 -0.2012  0.0104
    1W        W58989   0.322  10.961   9.323 -0.0643 -0.1048  0.1227
    1W        W58990  10.817  11.268   2.708  0.3379 -0.1383  0.1154
    1W        W58991  24.541  23.701   0.907  0.0593 -0.3351 -0.1526
    1W        W58992   1.499  29.129   8.140  0.0236 -0.0553  0.3607
    1W        W58993  13.888  10.339   2.040 -0.2670 -0.0037  0.0356
    1W        W58994  21.686  20.829   7.375  0.0869  0.2372 -0.1504
    1W        W58995  24.901  25.481   9.099  0.0082 -0.0610 -0.0496
    1W        W58996  27.157  19.150   1.333  0.2113  0.1979  0.1446
    1W        W58997  10.450  29.482   3.155  0.0510  0.1703  0.2084
    1W        W58998  14.875  25.220   7.455 -0.2500  0.3262 -0.0322
    1W        W58999   4.873  13.893   8.242 -0.1223  0.1636 -0.1322
    1W        W59000  25.446  29.611   7.240 -0.0294 -0.1073 -0.3624
    1W        W59001  10.768  24.914   1.694  0.0218  0.1179 -0.0093
    1W        W59002  28.228  22.967   7.729 -0.3043  0.1766 -0.0533
    1W        W59003   4.300  23.574   8.207  0.2109  0.1738 -0.3331
    1W        W59004  10.292   4.331   7.674 -0.1061  0.2738  0.0133
    1W        W59005   8.303  14.714   7.952 -0.0241 -0.1420 -0.1318
    1W        W59006  15.081   0.738   9.168  0.0635  0.0545  0.0187
    1W        W59007  27.554   0.527   7.495  0.0194 -0.0634 -0.1145
    1W        W59008  20.330  20.267   0.220  0.2069  0.0349 -0.1595
    1W        W59009   5.987  16.718   2.669 -0.0211  0.0302 -0.1509
    1W        W59010  19.817  13.476   8.080 -0.0196 -0.1568  0.3067
    1W        W59011  17.716  22.561   0.623  0.1496  0.0112  0.0171
    1W        W59012  29.789   6.581   7.245 -0.0437 -0.2616  0.2971
    1W        W59013   7.822  24.544   9.338 -0.2455  0.0314  0.0994
    1W        W59014  16.676  29.370   8.954  0.2374 -0.2587  0.0184
    1W        W59015  11.902  20.692   1.380 -0.0512 -0.0309 -0.0861
    1W        W59016   1.745  28.789   1.106 -0.3897 -0.0044  0.2653
    1W        W59017  13.471   1.560   0.875 -0.0302 -0.0562  0.1439
    1W        W59018  15.131  25.308   1.783  0.0157 -0.1006  0.0788
    1W        W59019  15.157   5.534   2.010 -0.1849  0.0314 -0.1344
    1W        W59020  24.887  28.939   9.092  0.0589 -0.2334  0.0487
    1W        W59021  18.880   5.962   1.417 -0.2157  0.1922  0.2692
    1W        W59022  20.429  22.766   1.058  0.2516  0.1275  0.1439
    1W        W59023   2.216   3.638   7.712 -0.0392  0.1520  0.3751
    1W        W59024   2.586  15.856   6.900 -0.0196 -0.0585  0.0426
    1W        W59025  25.057  11.789   1.466 -0.1836 -0.1557 -0.1084
    1W        W59026  23.696  26.549   1.249 -0.2207 -0.0523  0.1155
    1W        W59027   8.327  21.290   8.407 -0.1921 -0.0356  0.2209
    1W        W59028  26.389  29.596   2.869  0.0972 -0.0925  0.2019
    1W        W59029  10.928  27.259   1.930 -0.0292 -0.1712  0.2855
    1W        W59030  15.359  10.637   8.663 -0.1299  0.0645  0.1027
    1W        W59031   2.039  19.723   1.853 -0.2655 -0.0000 -0.3412
    1W        W59032  28.775  10.480   8.299 -0.1085 -0.0645  0.1974
    1W        W59033  28.582  21.403   1.511  0.1483 -0.2817  0.1716
    1W        W59034   9.357  25.613   7.400  0.1123  0.0503 -0.0212
    1W        W59035   3.670  17.018   6.497  0.1953 -0.1278 -0.3344
    1W        W59036  27.776   3.012   7.304 -0.1112  0.2341  0.0287
    1W        W59037  13.894   2.799   8.608  0.1099 -0.2349 -0.0681
    1W        W59038  23.924  21.281   6.969 -0.1020 -0.1398 -0.1233
    1W        W59039  16.633  27.602   8.274  0.3318  0.1984  0.1981
    1W        W59040   0.277  27.377   7.984 -0.3225  0.1534 -0.1852
    1W        W59041   9.806  18.258   9.126  0.0811 -0.0035  0.1151
    1W        W59042  19.716  27.297   2.805 -0.3524  0.2243 -0.0776
    1W        W59043   4.224  10.521   7.015 -0.3850 -0.0272  0.2004
    1W        W59044  24.368   9.110   7.487 -0.2673  0.2144  0.0428
    1W        W59045   1.566  23.750   9.235 -0.1971 -0.0536  0.1136
    1W        W59046  19.827  26.997   9.350  0.0160  0.0783 -0.1758
    1W        W59047  18.404  22.979   0.456  0.1067 -0.3894  0.1500
    1W        W59048   3.204   6.115   8.902  0.5720 -0.2773 -0.1484
    1W        W59049  22.765   7.053   2.661 -0.1590  0.0149  0.3164
    1W        W59050  20.891   5.747   6.988 -0.0358  0.0684 -0.0798
    1W        W59051  20.237  27.273   9.339 -0.2564  0.3574 -0.2526
    1W        W59052   6.840  14.089   6.609 -0.1127 -0.3120  0.1138
    1W        W59053   7.151   3.491   1.708 -0.0816  0.1652 -0.1736
    1W        W59054  14.149   0.067   2.340 -0.0503  0.1371 -0.1726
    1W        W59055  26.884  16.188   8.884 -0.1445  0.0505  0.0741
    1W        W59056  10.026   3.979   1.710  0.2831  0.1072 -0.1241
    1W        W59057  11.787  17.491   1.757  0.2897 -0.0452  0.0306
    1W        W59058  18.003   3.735   1.755  0.1036 -0.1098  0.0320
    1W        W59059  10.378  25.233   1.630  0.0634 -0.1039 -0.3341
    1W        W59060   4.718  21.572   8.966  0.0506  0.0911 -0.1478
    1W        W59061  19.945  10.905   8.809  0.1218  0.1119  0.1431
    1W        W59062   8.713  18.085   2.497 -0.2729  0.0163  0.3361
    1W        W59063   7.938   0.396   1.996 -0.2103  0.2772  0.2329
    1W        W59064  28.581   3.467   6.797  0.1622 -0.1548  0.0012
    1W        W59065  26.785   1.612   0.690  0.2418  0.1133  0.0790
    1W        W59066  21.729   2.653   6.744  0.1043 -0.0166 -0.0274
    1W        W59067   8.680   5.840   2.209  0.0925 -0.3616  0.1349
    1W        W59068  15.317  21.471   7.802  0.1200  0.0049 -0.1657
    1W        W59069  28.022  24.274   1.046 -0.3056  0.2205 -0.1745
    1W        W59070   0.443   4.727   1.765 -0.0533  0.1443 -0.4203
    1W        W59071   0.248   8.903   1.022 -0.2563  0.3416  0.0378
    1W        W59072  29.354  12.377   6.354  0.3863  0.0982 -0.3182
    1W        W59073  19.731  27.709   1.759 -0.2203  0.0491  0.0428
    1W        W59074  12.799  24.201   7.062 -0.2923 -0.1540  0.2976
    1W        W59075   9.380  30.139   3.866 -0.3779  0.1279 -0.0700
    1W        W59076  27.224  21.211   1.172 -0.0034 -0.3132 -0.0275
    1W        W59077   5.900   2.479   3.776  0.1179  0.1248  0.2791
    1W        W59078   8.723  14.206   1.705 -0.0005  0.3117  0.3358
    1W        W59079  10.540  14.017   1.865  0.1330 -0.2350 -0.2845
    1W        W59080  28.093  21.381   7.360 -0.0558 -0.0011 -0.1604
    1W        W59081  12.264   2.800   3.709 -0.1151 -0.2360  0.0781
    1W        W59082   4.826  26.986   2.770 -0.0724 -0.0334  0.3143
    1W        W59083   4.610   0.210   2.747  0.3511  0.1220 -0.3148
    1W        W59084  21.687  10.271   2.329  0.3831 -0.0703 -0.0911
    1W        W59085  30.095  18.198   7.585  0.0067  0.2870  0.1041
    1W        W59086   9.913   7.047   9.144 -0.0323 -0.0271 -0.0029
    1W        W59087  19.400  15.748   0.481 -0.0319  0.2421 -0.0877
    1W        W59088  10.334   5.200   8.643 -0.1796 -0.2812  0.1938
    1W        W59089  18.713   3.509   2.876  0.1204  0.0006  0.3009
    1W        W59090  22.345  22.100   9.113 -0.3645  0.1313  0.0097
    1W        W59091  10.993  25.285   7.240 -0.0942  0.3045  0.1024
    1W        W59092   8.164  24.291   9.075 -0.0117 -0.1538  0.1234
    1W        W59093  29.485   9.731   1.997 -0.1400  0.0529 -0.1131
    1W        W59094   1.495  11.482   6.658  0.1269  0.2040 -0.1674
    1W        W59095  17.605  15.494   0.520 -0.1475 -0.2743 -0.1654
    1W        W59096  13.012   0.379   8.006  0.0677  0.1261  0.0451
    1W        W59097   3.269  27.185   2.577  0.3157  0.2604 -0.2379
    1W        W59098   5.821  13.948   8.297 -0.1194 -0.1455  0.0717
    1W        W59099  17.433   6.712   9.004  0.3235 -0.0891 -0.2774
    1W        W59100  22.766  22.133   5.847  0.1159 -0.1657 -0.0818
    1W        W59101  28.087   6.488   7.118 -0.0463  0.4791 -0.1679
    1W        W59102  28.902  20.837   6.194 -0.0475  0.0853  0.2751
    1W        W59103   6.973   7.412   1.177 -0.4087  0.1724 -0.2564
    1W        W59104  28.338   5.564   1.444 -0.1674  0.1488 -0.2193
    1W        W59105  28.269  13.299   0.615 -0.3067  0.0923  0.0901
    1W        W59106  14.364   3.476   3.082  0.1785 -0.0927  0.1829
    1W        W59107  26.496  15.889   5.453 -0.0105 -0.0938  0.6208
    1W        W59108  21.395  20.099   6.874 -0.2039 -0.0050 -0.3477
    1W        W59109  26.286   4.895   0.139  0.1687  0.0522  0.0745
    1W        W59110  19.650   7.799   0.117  0.1894 -0.3012  0.0904
    1W        W59111   5.161  28.147   2.695  0.1364  0.1692 -0.3178
    1W        W59112  16.840   0.168   1.843  0.0894  0.1802  0.1705
    1W        W59113   3.260   2.390   1.045  0.0358  0.3278  0.1158
    1W        W59114  14.011   4.186   9.208 -0.1212 -0.1750  0.0927
    1W        W59115  11.731  11.224   3.688  0.0149  0.0895  0.2583
    1W        W59116  12.716  28.209   7.804  0.0739  0.0422 -0.1867
    1W        W59117  12.918   5.748   3.976 -0.2017  0.3092  0.0091
    1W        W59118   3.882   6.264   8.070 -0.1671  0.3606  0.1446
    1W        W59119  16.218   9.646   0.642  0.2120 -0.2448  0.1010
    1W        W59120  18.234  25.946   7.516 -0.3247 -0.0401  0.0637
    1W        W59121  24.278  13.301   7.733  0.1750 -0.1274 -0.2616
    1W        W59122  20.557  20.516   1.241 -0.2840 -0.0871  0.1423
    1W        W59123   8.011  14.460   0.481  0.1523 -0.0040 -0.5025
    1W        W59124  28.943  29.007   8.276  0.3708  0.3255  0.1349
    1W        W59125  24.363  29.718   0.951  0.0761  0.1914 -0.1277
    1W        W59126   1.015   7.491   9.311 -0.0284 -0.0776 -0.1743
    1W        W59127  28.051  22.131   1.533 -0.1777  0.0335 -0.2447
    1W        W59128  23.564  11.306   8.087 -0.2028  0.1985  0.1901
    1W        W59129   6.185  14.386   0.570 -0.0181 -0.0629 -0.1670
    1W        W59130   3.636   5.964   2.164  0.1143 -0.0070 -0.0155
    1W        W59131  21.910   4.254   0.314  0.0723  0.1558 -0.1075
    1W        W59132   7.416  23.340   8.393  0.0871  0.4081 -0.1965
    1W        W59133  19.029   5.883   7.452 -0.2386 -0.2268 -0.0523
    1W        W59134  22.099  22.524   2.051 -0.1163 -0.0609  0.0139
    1W        W59135  15.468  28.987   6.618  0.0840  0.1289  0.1213
    1W        W59136   4.056  22.939   6.880 -0.1409  0.0527 -0.3157
    1W        W59137  25.974   0.182   2.918  0.0857  0.2253  0.0730
    1W        W59138  11.525   8.185   1.171  0.2047  0.2947 -0.0163
    1W        W59139  15.794  27.667   2.490  0.0735 -0.1546 -0.2160
    1W        W59140  29.546   4.624   8.549  0.2021  0.1269  0.0348
    1W        W59141  18.778  27.959   2.679 -0.3247  0.0605  0.0246
    1W        W59142  13.286  28.599   0.937  0.0290  0.1572 -0.0883
    1W        W59143  25.361  19.043   7.568 -0.1739  0.0550 -0.0960
    1W        W59144  10.610  29.223   8.453  0.0098 -0.4225 -0.0261
    1W        W59145  24.264  10.479   1.344 -0.0612  0.1488  0.3608
    1W        W59146  15.863  28.525   9.189 -0.0009 -0.1013  0.1123
    1W        W59147   4.905   5.035   0.837  0.1962  0.0550 -0.0254
    1W        W59148  11.460  11.725   8.840  0.0582 -0.3362 -0.1814
    1W        W59149  18.376  18.636   1.145  0.0505  0.2021  0.0297
    1W        W59150  24.709  18.538   7.844  0.2402 -0.0573 -0.4058
    1W        W59151  29.860  25.706   7.060 -0.1333  0.1852 -0.0232
    1W        W59152  29.436  20.107   8.030  0.2523 -0.0147  0.0909
    1W        W59153   6.345   5.419   7.273 -0.3010  0.3496 -0.0959
    1W        W59154  20.825  24.880   0.834  0.2028  0.0852 -0.1022
    1W        W59155  17.495   9.081   8.006  0.0260  0.0345 -0.1945
    1W        W59156   8.033  17.718   0.821 -0.2391 -0.1591 -0.1892
    1W        W59157  26.328  26.244   8.269 -0.1843 -0.0077  0.0035
    1W        W59158  10.180  25.645   8.998  0.0699  0.1081 -0.0836
    1W        W59159   0.408   7.245   3.372  0.0446 -0.1620 -0.1868
    1W        W59160  23.878  27.406   7.812 -0.2641  0.3173  0.0488
    1W        W59161   3.169  25.573   6.233  0.2980 -0.6833  0.2465
    1W        W59162  10.224   4.455   1.411  0.1399  0.0757 -0.1431
    1W        W59163  29.590  14.132   1.259  0.0804  0.0703 -0.1394
    1W        W59164   5.619  20.661   5.372  0.0170  0.1761  0.0397
    1W        W59165  23.658  19.169   1.224 -0.2725 -0.0826  0.0614
    1W        W59166  23.261  11.343   0.602  0.1954  0.0478  0.0606
    1W        W59167   9.968   8.422   1.837  0.1147  0.3725  0.0299
    1W        W59168  13.222  17.222   8.769 -0.2220 -0.1401 -0.0304
    1W        W59169  17.499  19.752   7.977  0.2585  0.1809 -0.3981
    1W        W59170  16.862   3.298   8.617  0.2062  0.2160  0.0696
    1W        W59171  24.845   4.572   2.846 -0.0323 -0.0910  0.0059
    1W        W59172  14.581  11.517   1.946 -0.1133  0.0625  0.2409
    1W        W59173   3.002  24.988   7.379 -0.1564  0.0743  0.1824
    1W        W59174   7.368  11.605   7.772  0.0928 -0.2094  0.2950
    1W        W59175  14.510   7.477   1.332  0.1002 -0.3256  0.1446
    1W        W59176   6.613  25.499   5.893  0.1476  0.2202  0.2864
    1W        W59177  21.173   3.420   2.057 -0.0428 -0.1469  0.0588
    1W        W59178  22.022  26.526   2.899  0.2386  0.4473 -0.5292
    1W        W59179  17.879  24.668   0.521 -0.2800  0.1275 -0.3586
    1W        W59180   8.451  26.756   9.149  0.0805  0.1603  0.0457
    1W        W59181  15.557  18.199   6.585 -0.0053  0.0242  0.0448
    1W        W59182  28.009  29.307   0.903 -0.0443 -0.1474  0.0802
    1W        W59183  15.674  17.290   8.915 -0.0498  0.0712 -0.3333
    1W        W59184   4.499   0.506   0.896 -0.0237  0.1470  0.3461
    1W        W59185  13.897   3.734   2.974  0.2350 -0.4003 -0.2761
    1W        W59186  22.844  21.233   2.207 -0.2155 -0.1494 -0.2952
    1W        W59187  14.923  18.348   7.873 -0.2451  0.0138 -0.1762
    1W        W59188   6.585  15.001   0.553 -0.0727  0.0007  0.1234
    1W        W59189   4.497  27.833   0.664  0.0509 -0.2394 -0.2458
    1W        W59190  22.056  12.540   8.120 -0.2099 -0.0244  0.1631
    1W        W59191  25.033   7.104   9.133  0.0469  0.0133 -0.1611
    1W        W59192  16.172  26.230   0.576  0.5430 -0.3127 -0.1352
    1W        W59193  14.762   5.737   1.318 -0.1811 -0.1010 -0.4169
    1W        W59194   7.160   9.149   0.142 -0.3400 -0.0355  0.1593
    1W        W59195   1.219  20.143   0.495  0.0813 -0.0593 -0.0131
    1W        W59196  14.615   9.556   8.816 -0.2347  0.1534 -0.1712
    1W        W59197   6.931   8.509   3.327  0.1883  0.1249  0.1631
    1W        W59198   3.108  15.112   8.279  0.1590 -0.0798 -0.3357
    1W        W59199  27.959   6.277   8.444 -0.0135 -0.2789  0.1431
    1W        W59200   6.215   3.986   9.232  0.1664 -0.0662 -0.0634
    1W        W59201   1.590  25.071   1.104  0.0867 -0.0214  0.1287
    1W        W59202  21.495  12.449   1.280  0.1532  0.1845  0.1067
    1W        W59203  20.861  29.754   6.460  0.0280  0.1495 -0.0389
    1W        W59204   9.795  23.218   9.235 -0.2628 -0.1500 -0.0564
    1W        W59205  14.397  10.488   0.610 -0.1003 -0.0938 -0.0164
    1W        W59206  19.541   8.785   2.796  0.2226  0.0176  0.0581
    1W        W59207   0.927  23.957   6.220 -0.2507  0.2178  0.2696
    1W        W59208  29.312  16.161   9.202  0.1485  0.0769  0.2236
    1W        W59209  22.868   9.732   0.612  0.1119  0.3772  0.1685
    1W        W59210   2.723  11.624   6.725  0.1142  0.1791 -0.2235
    1W        W59211  10.859  26.995   7.851 -0.2443  0.3454  0.0283
    1W        W59212   5.599   9.002   3.934  0.0483  0.1009 -0.0168
    1W        W59213  23.317  28.529   7.249  0.0745  0.0254  0.0869
    1W        W59214  20.110   4.318   2.153 -0.0502  0.1313 -0.2770
    1W        W59215  29.862  28.657   0.569  0.2962 -0.4267  0.2130
    1W        W59216  24.223  26.382   7.634  0.1105  0.0345  0.0110
    1W        W59217  28.968  17.485   0.474  0.1818 -0.0495 -0.0423
    1W        W59218  25.229  11.445   8.320 -0.0709  0.1299  0.2108
    1W        W59219  27.088   8.390   1.474  0.1165  0.0118 -0.0718
    1W        W59220   7.090  27.933   2.892 -0.0366  0.0223 -0.1949
    1W        W59221  12.338  25.065   8.363 -0.1733 -0.1644 -0.1797
    1W        W59222   5.200  22.176   6.857 -0.0655 -0.2988  0.0531
    1W        W59223  28.241  22.327   9.364  0.1338 -0.4467 -0.0943
    1W        W59224  14.545   0.637   9.382  0.1382  0.1062 -0.1608
    1W        W59225   7.500  11.797   8.813 -0.2230 -0.1140  0.0189
    1W        W59226  25.312  23.346   1.663  0.0518  0.0164 -0.0549
    1W        W59227  25.227   0.156   2.310  0.1057 -0.0766  0.0383
    1W        W59228   3.289  28.485   0.726  0.1158  0.1083  0.0790
    1W        W59229   5.884   1.836   8.721  0.0254 -0.0577  0.2652
    1W        W59230  17.503  11.821   8.395 -0.2100  0.2042  0.0272
    1W        W59231  24.930  23.658   2.428  0.0346 -0.1212  0.0368
    1W        W59232  27.233  21.882   7.231 -0.1499  0.2772  0.2202
    1W        W59233  29.571  28.363   2.754 -0.1485  0.3449 -0.0453
    1W        W59234   4.030   5.462   1.017 -0.0590 -0.2778 -0.2726
    1W        W59235  25.046  20.455   1.289  0.1391 -0.0214 -0.2432
    1W        W59236  19.611  27.327   7.567 -0.2299 -0.1339 -0.1761
    1W        W59237  15.527  24.869   0.423 -0.1342  0.3294 -0.0201
    1W        W59238  12.236  19.536   8.720 -0.1182 -0.0804 -0.0852
    1W        W59239   5.305   6.067   3.263 -0.1703 -0.2009 -0.0669
    1W        W59240  19.625  20.329   9.105  0.0379  0.4396  0.0242
    1W        W59241  19.063  12.521   7.340 -0.0394  0.0734  0.0639
    1W        W59242  21.186  16.934   8.708  0.1515  0.0769 -0.0923
    1W        W59243  27.913  20.965   2.527 -0.0769 -0.1282  0.0207
    1W        W59244  17.160  14.508   1.208 -0.0982  0.0674 -0.1648
    1W        W59245  18.842  20.980   0.367  0.2683  0.0210 -0.1893
    1W        W59246  18.894   5.522   3.086  0.3060  0.0377 -0.0066
    1W        W59247  27.852   6.736   7.606  0.2481 -0.2493  0.5878
    1W        W59248   1.397  21.395   7.053 -0.2049 -0.0058  0.2251
    1W        W59249   6.972  24.904   8.562  0.4706 -0.2303 -0.1787
    1W        W59250   5.037   1.590   2.520 -0.2106  0.1075 -0.0090
    1W        W59251   9.077   1.239   9.207 -0.3087 -0.1800  0.1220
    1W        W59252  24.139  24.561   2.169 -0.0375  0.0677  0.0477
    1W        W59253  19.698  28.998   1.271  0.0540  0.1246 -0.1994
    1W        W59254  12.538   4.534   9.128  0.0474  0.1981 -0.0119
    1W        W59255   3.536  25.045   7.402  0.1994  0.0914  0.0917
    1W        W59256  29.021  27.572   8.210  0.1722  0.0355 -0.2179
    1W        W59257  23.494  25.814   1.028 -0.0038  0.0483 -0.0502
    1W        W59258   1.969   4.378   7.570 -0.0624 -0.4027  0.4740
    1W        W59259  10.749  22.574   2.067 -0.1077  0.2184 -0.1453
    1W        W59260  24.986   8.296   7.443  0.0545  0.2118  0.0047
    1W        W59261  29.927  24.361   7.019  0.0775 -0.2941 -0.2305
    1W        W59262  20.658  19.015   2.140 -0.2601 -0.1124  0.0057
    1W        W59263   5.831  27.101   2.187  0.0575  0.1801 -0.2674
    1W        W59264  21.633  27.748   2.003  0.0320  0.1236  0.0988
    1W        W59265   5.590   6.015   1.357  0.3047 -0.0920 -0.0337
    1W        W59266  16.958   2.893   2.473 -0.0306 -0.3034 -0.0525
    1W        W59267   4.685   9.894   6.650 -0.0740  0.0795  0.1288
    1W        W59268   0.310   4.526   7.111  0.2279 -0.0303  0.0184
    1W        W59269   2.581   6.158   0.622 -0.1600  0.0110  0.1493
    1W        W59270   3.641   8.119   0.725 -0.1805  0.0652  0.2294
    1W        W59271  16.813  19.308   7.804  0.3724 -0.0332  0.1206
    1W        W59272   4.065  21.010   1.761 -0.1873  0.0964  0.0023
    1W        W59273  20.554  28.511   9.192  0.0937 -0.0118  0.2273
    1W        W59274   0.945  24.910   1.929 -0.1201 -0.0076  0.0826
    1W        W59275   2.838  11.660   7.397 -0.1822  0.0131 -0.0120
    1W        W59276  23.687   8.463   1.901  0.0261  0.0885  0.0567
    1W        W59277  12.522   0.632   1.678 -0.3649 -0.0258  0.0447
    1W        W59278  28.414  14.383   1.264  0.1024 -0.0128 -0.3535
    1W        W59279   6.862  24.133   1.727  0.0374  0.1728  0.1757
    1W        W59280   4.269  13.075   8.214 -0.1750 -0.1523 -0.0988
    1W        W59281   3.739   3.599   1.457 -0.0293  0.2233  0.2168
    1W        W59282   9.084   8.406   1.851  0.2628  0.0375  0.0774
    1W        W59283  24.419  28.134   9.006  0.1382 -0.1325  0.0428
    1W        W59284   0.514  27.389   1.860  0.0749 -0.1866  0.3500
    1W        W59285  28.263  16.639   6.274 -0.0386 -0.0705 -0.2214
    1W        W59286  19.359   5.710   7.797  0.1681 -0.0225  0.2531
    1W        W59287   0.764   3.470   8.157 -0.1369  0.0344 -0.2384
    1W        W59288   6.611   4.723   7.836 -0.4228 -0.0338 -0.2028
    1W        W59289  29.814   6.176   6.756  0.0443  0.0760 -0.1347
    1W        W59290   2.096   0.553   9.221  0.3359 -0.3446 -0.4047
    1W        W59291  11.174  22.176   2.237  0.1624  0.1571  0.0877
    1W        W59292  14.574   9.282   0.143  0.1035 -0.0411 -0.0420
    1W        W59293  10.512   6.323   9.200  0.1225 -0.1435 -0.3287
    1W        W59294  13.570  28.150   0.889  0.0827  0.0610 -0.1930
    1W        W59295  27.092   5.137   8.209 -0.2709 -0.1741  0.0038
    1W        W59296   4.796  29.225   1.287 -0.3057  0.1057 -0.0381
    1W        W59297   8.323   2.552   1.955 -0.0651 -0.0298  0.1846
    1W        W59298   2.879  20.311   5.994 -0.0638 -0.1894  0.1153
    1W        W59299  28.551   1.886   1.300  0.5770  0.0320 -0.3097
    1W        W59300  14.626   1.321   2.789  0.1323  0.1304 -0.0417
    1W        W59301  28.405   1.589   0.324  0.0243 -0.2488  0.0423
    1W        W59302   5.522   9.298   7.544  0.1512  0.0776  0.1237
    1W        W59303   4.132   3.608   1.155  0.3338 -0.0756  0.3031
    1W        W59304   6.877  15.594   7.281 -0.0153 -0.0118  0.1608
    1W        W59305  17.262   8.072   1.005 -0.1679 -0.1422 -0.0207
    1W        W59306  19.570   7.732   0.727  0.1185 -0.2054 -0.0418
    1W        W59307   6.619   6.146   8.547 -0.3336 -0.1909  0.1211
    1W        W59308   2.373  25.758   7.887  0.2400  0.0772 -0.2027
    1W        W59309   3.129  21.498   9.220  0.2397  0.0948 -0.1610
    1W        W59310  12.208  25.539   2.912  0.0718 -0.1639  0.1115
    1W        W59311   5.951  19.745   7.110 -0.0885 -0.0428 -0.1060
    1W        W59312  13.182  20.307   8.999  0.0277  0.3357 -0.3582
    1W        W59313  14.287  21.926   1.219  0.1519  0.0985  0.0125
    1W        W59314   8.643  27.037   6.899 -0.0360 -0.2014  0.1160
    1W        W59315  10.851   9.450   8.396  0.1666  0.2516 -0.0476
    1W        W59316  27.490  23.085   9.118 -0.0022 -0.0445 -0.1772
    1W        W59317  16.569   4.875   0.199  0.0861  0.1847 -0.2340
    1W        W59318  21.641  19.143   0.784 -0.1746  0.0227 -0.1095
    1W        W59319  24.493  24.161   8.217  0.0442 -0.0753 -0.2521
    1W        W59320  23.279  28.877   0.174  0.1200  0.0024  0.2513
    1W        W59321   2.352   7.634   6.174  0.1345 -0.4665 -0.0938
    1W        W59322  24.439   4.937   2.084 -0.0503 -0.1215 -0.0431
    1W        W59323  29.821  17.577   1.784  0.2238 -0.1104 -0.1630
    1W        W59324   7.892   8.112   3.781 -0.3484 -0.3543 -0.2996
    1W        W59325  21.640  28.188   6.762  0.1362 -0.0183 -0.1039
    1W        W59326  22.522  27.103   7.693  0.4112  0.3430 -0.1639
    1W        W59327  18.344  20.933   1.108 -0.0857 -0.1205  0.0699
    1W        W59328  28.643  22.841   2.813  0.2082 -0.0816  0.1256
    1W        W59329   2.788  18.776   6.758 -0.2980 -0.0241  0.1140
    1W        W59330   2.371   4.031   8.856 -0.3371  0.1208  0.1567
    1W        W59331  14.790  30.074   3.000  0.2105 -0.2971  0.1220
    1W        W59332  10.783   6.789   7.784 -0.2013 -0.1198 -0.0160
    1W        W59333  26.345   4.419   9.239  0.0099  0.0568 -0.2002
    1W        W59334  26.219  28.720   9.325  0.0855 -0.2768 -0.1354
    1W        W59335  23.310  23.203   9.013  0.2888 -0.2078 -0.0265
    1W        W59336  29.978  15.364   1.363  0.2643 -0.0938  0.1484
    1W        W59337  21.831   5.680   2.929 -0.0235  0.1850 -0.1100
    1W        W59338  29.244   9.048   2.444 -0.3382 -0.2441  0.0372
    1W        W59339  21.442  28.741   3.092  0.1905 -0.0500  0.2096
    1W        W59340  12.280  20.967   8.651  0.2137  0.0411  0.1398
    1W        W59341   7.635   3.093   1.724 -0.0572 -0.3783  0.1813
    1W        W59342  19.287  11.465   0.107  0.0983  0.0876 -0.0713
    1W        W59343   4.958   6.818   1.649  0.1833 -0.0162 -0.0038
    1W        W59344   1.510   9.984   0.944 -0.1709 -0.3659 -0.0801
    1W        W59345   5.454  14.516   1.561  0.2629 -0.1367  0.1514
    1W        W59346  17.832  26.747   3.222  0.0298  0.3893  0.3346
    1W        W59347  22.268  10.868   7.104 -0.1023  0.2300  0.3581
    1W        W59348  26.609   0.469   0.532 -0.0663 -0.2062  0.1863
    1W        W59349   3.626  14.330   8.512 -0.0270 -0.2504 -0.1572
    1W        W59350  18.477  20.595   1.559 -0.0385  0.0020  0.1161
    1W        W59351  15.499   8.455   7.792 -0.3041  0.0307 -0.2723
    1W        W59352  25.390   1.958   6.157 -0.3881 -0.0299  0.0786
    1W        W59353  16.844  10.340   8.721  0.2343  0.1701 -0.0954
    1W        W59354  22.146  15.783   0.463 -0.0420 -0.1606  0.3405
    1W        W59355   0.300  23.433   6.779 -0.3622  0.2278  0.0282
    1W        W59356  14.248  22.907   9.165 -0.2779  0.0418 -0.0617
    1W        W59357   8.258  20.779   1.225  0.1923  0.1391 -0.0449
    1W        W59358  12.949  13.460   7.924 -0.0967  0.1087  0.1759
    1W        W59359  11.888  23.169   7.631 -0.3083 -0.2461  0.0904
    1W        W59360  25.593  19.563   7.397 -0.5141 -0.4712 -0.2200
    1W        W59361   0.708   1.143   2.563 -0.1847  0.0139  0.0365
    1W        W59362  12.738  27.482   0.757  0.0975 -0.0971 -0.0962
    1W        W59363  12.999   5.765   0.740 -0.0121  0.0579 -0.0324
    1W        W59364   1.250   4.448   0.753 -0.2429 -0.0541  0.0927
    1W        W59365  12.307  16.384   0.815  0.0301  0.2386  0.2134
    1W        W59366   8.186  29.353   1.378  0.0631 -0.2260  0.4686
    1W        W59367   0.980  27.863   8.590  0.0613  0.0611 -0.1996
    1W        W59368   4.695   0.720   2.713  0.1321  0.1755 -0.0146
    1W        W59369   0.125   3.283   0.732 -0.0415 -0.1208  0.1374
    1W        W59370  21.674  12.195   1.666 -0.0231  0.0522  0.0521
    1W        W59371  16.086  17.465   7.786  0.0727  0.2451 -0.3045
    1W        W59372  28.575  18.283   5.251  0.3241  0.0930  0.1173
    1W        W59373   4.830  16.846   0.603  0.0177  0.0646 -0.1562
    1W        W59374  10.013  30.133   0.222 -0.1216 -0.1698 -0.0978
    1W        W59375  22.355   7.945   7.913  0.0921 -0.1694 -0.0261
    1W        W59376  23.804  23.792   6.556  0.2800 -0.0214 -0.0629
    1W        W59377  18.198   8.865   2.785  0.1238 -0.2163 -0.1996
    1W        W59378  22.664  28.718   6.827  0.1098 -0.0566  0.2052
    1W        W59379  16.161   0.858   1.492 -0.3288 -0.1877  0.0410
    1W        W59380   8.644  23.158   6.219  0.2809 -0.0173  0.1193
    1W        W59381   5.095  12.154   0.361  0.2732  0.1044 -0.1298
    1W        W59382  17.775  11.090   1.396 -0.1579  0.1035  0.0331
    1W        W59383  21.949  27.436   0.614  0.1843 -0.3111  0.1224
    1W        W59384   7.993   2.372   2.592 -0.1418 -0.4032  0.0793
    1W        W59385  28.810  23.298   0.424 -0.3003 -0.3141  0.1019
    1W        W59386   3.583  15.705   7.383  0.1326 -0.1136  0.0477
    1W        W59387   9.488  11.556   1.911 -0.1812 -0.0517 -0.2266
    1W        W59388  28.329  18.613   7.440 -0.0955 -0.0068 -0.2121
    1W        W59389  29.720   7.987   8.929  0.1085 -0.0532  0.0669
    1W        W59390  23.009  11.549   8.122  0.2180 -0.0488 -0.0554
    1W        W59391  14.628  10.182   1.878 -0.3527  0.0374  0.1828
    1W        W59392  10.127   7.696   0.254  0.0058 -0.1862  0.1339
    1W        W59393   0.299  26.401   2.432 -0.0790  0.1035  0.1283
    1W        W59394  23.417   8.647   1.495  0.0979  0.0061  0.0353
    1W        W59395  21.920  24.770   8.520 -0.0657 -0.1565  0.1333
    1W        W59396  24.196   5.728   1.833 -0.1624  0.3305  0.0593
    1W        W59397  20.389  30.141   0.124  0.2070 -0.0869  0.0588
    1W        W59398  28.624  22.509   0.897 -0.0898  0.2381  0.0134
    1W        W59399  20.983  19.885   1.542  0.2203 -0.4183  0.0774
    1W        W59400  11.250  28.504   1.191  0.0463 -0.1380 -0.0697
    1W        W59401   7.119  14.131   2.200 -0.0635  0.0096  0.0933
    1W        W59402  24.824   0.287   8.754  0.0392 -0.2552 -0.1221
    1W        W59403  28.347  15.781   1.229  0.0137 -0.1815 -0.0177
    1W        W59404  21.501  18.909   8.368  0.0372 -0.2156 -0.1775
    1W        W59405  22.617  15.385   8.994  0.0662  0.0664  0.0993
    1W        W59406  24.869   6.127   8.711  0.2467 -0.1381 -0.1413
    1W        W59407  20.128  25.697   3.301  0.0889 -0.4902 -0.3408
    1W        W59408  23.058   7.489   1.010 -0.2084 -0.3016 -0.0302
    1W        W59409  25.213  10.892   9.352 -0.1666 -0.0614  0.0760
    1W        W59410  12.760  20.805   1.962  0.2864 -0.0187 -0.0751
    1W        W59411  15.680  18.039   8.149  0.0292 -0.4091 -0.2109
    1W        W59412  29.476   9.429   1.272  0.2151  0.2516 -0.0680
    1W        W59413  27.025  25.993   3.384  0.0306 -0.2065  0.3498
    1W        W59414  27.648  26.967   2.737 -0.1488  0.0115 -0.1770
    1W        W59415   0.865  11.807   7.487 -0.0889 -0.2736 -0.1211
    1W        W59416  19.327   4.967   3.857  0.1597  0.3555  0.0018
    1W        W59417  12.387  18.446   2.557  0.1549  0.1119  0.0498
    1W        W59418  24.772  22.280   6.643 -0.0635  0.1859 -0.0570
    1W        W59419  10.410  15.039   9.035  0.1343 -0.0485 -0.2151
    1W        W59420  14.678   4.953   8.222 -0.2193  0.0525  0.0052
    1W        W59421  23.208  23.721   2.111  0.0008  0.1264 -0.2524
    1W        W59422  28.549  14.451   6.617  0.3711 -0.0446 -0.0893
    1W        W59423  22.670  12.192   7.246  0.2502 -0.0543  0.3776
    1W        W59424  23.782  24.695   1.881 -0.2478 -0.0320 -0.4261
    1W        W59425  10.513  13.600   0.059 -0.2014  0.0391  0.2172
    1W        W59426  17.341   0.645   0.186  0.1811 -0.2407 -0.2784
    1W        W59427  27.485  29.037   2.052 -0.0319  0.0116  0.2543
    1W        W59428  22.780   4.973   0.381 -0.1135  0.0275  0.0886
    1W        W59429  23.757  12.256   7.731  0.1038 -0.0139 -0.1593
    1W        W59430  24.889  17.699   7.744  0.0797  0.0964 -0.2020
    1W        W59431   9.660  22.048   7.981 -0.0967 -0.4854  0.0636
    1W        W59432   3.698  25.888   8.650 -0.0695 -0.0085 -0.2982
    1W        W59433   2.226  22.807   9.226 -0.1507 -0.1290 -0.3034
    1W        W59434  13.638  22.163   0.018 -0.0682 -0.1082  0.0539
    1W        W59435  20.977   8.531   1.742  0.0174  0.2765  0.2645
    1W        W59436  22.172  16.632   6.854  0.0465  0.0142 -0.3469
    1W        W59437   1.560  11.536   8.064 -0.2497 -0.3660  0.0127
    1W        W59438  21.745  20.300   7.300  0.0606  0.3111  0.0178
    1W        W59439  29.827  27.074   7.288  0.2383  0.0105 -0.0309
    1W        W59440  14.730  20.925   0.713  0.1097  0.2163 -0.1409
    1W        W59441  27.965  16.194   8.356 -0.0574 -0.2522  0.1106
    1W        W59442  23.555  25.338   0.610 -0.0717 -0.2808 -0.2465
    1W        W59443  17.500  23.288   7.378  0.2347  0.2976 -0.0400
    1W        W59444  18.449  12.715   6.340  0.0052 -0.0169  0.0908
    1W        W59445   1.728  11.111   1.955  0.1535  0.0747  0.0617
    1W        W59446   5.043  25.224   8.242 -0.2301  0.0549  0.1921
    1W        W59447  20.987   5.037   8.816 -0.0227  0.1185 -0.0084
    1W        W59448  12.293   5.711   2.525 -0.0114 -0.1183  0.0937
    1W        W59449  13.547   0.794   2.154 -0.0170  0.1765 -0.0683
    1W        W59450  10.140   3.431   1.081 -0.4331 -0.0393  0.0833
    1W        W59451  23.711  28.556   8.082  0.1803 -0.1225 -0.2492
    1W        W59452   6.441  17.565   0.093  0.1481 -0.1097 -0.0610
    1W        W59453   0.785  10.483   6.215  0.2547 -0.2036  0.2412
    1W        W59454  25.424   5.608   1.794 -0.0758  0.1115 -0.1128
    1W        W59455  25.680  21.085   8.244 -0.1388  0.1472 -0.0878
    1W        W59456  29.200  10.224   0.862  0.1568  0.5195 -0.0401
    1W        W59457  27.333   6.304   0.045  0.0038 -0.0242 -0.1714
    1W        W59458  21.078  27.028   7.733 -0.2305 -0.3647 -0.1350
    1W        W59459  15.227  23.841   7.374 -0.0970  0.4224 -0.2016
    1W        W59460  26.237   0.724   2.173 -0.0944 -0.0192  0.2200
    1W        W59461  10.342   1.619   8.573 -0.1113 -0.0695 -0.3160
    1W        W59462   5.363  20.734   6.569 -0.1023  0.2599 -0.2761
    1W        W59463  11.456  29.984   3.208 -0.0054 -0.0824 -0.2415
    1W        W59464  28.655  18.811   0.544  0.3171  0.0324 -0.1658
    1W        W59465  14.578  28.650   0.278  0.2551 -0.1274 -0.0807
    1W        W59466  16.559   4.587   2.465  0.0203  0.2550 -0.1880
    1W        W59467  10.613  29.535   8.853  0.3069  0.1595  0.0047
    1W        W59468  27.838  22.699   6.134 -0.0089 -0.2876  0.0603
    1W        W59469  16.267  27.563   7.009 -0.0055  0.0656  0.2860
    1W        W59470  10.627  29.535   1.677 -0.0907 -0.1956  0.0583
    1W        W59471   7.704  11.550   3.458 -0.0831 -0.2000  0.1569
    1W        W59472   4.518   7.426   7.448 -0.0436  0.0224  0.2359
    1W        W59473  23.152  19.849   1.013 -0.3350  0.0449  0.2806
    1W        W59474  28.423  18.620   8.284 -0.0033 -0.2593 -0.1805
    1W        W59475  26.682   1.335   7.429  0.0261 -0.1363 -0.2322
    1W        W59476  17.960   9.167   2.041 -0.2969 -0.0618  0.2282
    1W        W59477   8.525  28.059   0.324  0.0651 -0.2551  0.0501
    1W        W59478   3.492  13.646   0.835  0.2830 -0.0577  0.1366
    1W        W59479  18.552  28.528   1.452 -0.2554  0.0803 -0.0382
    1W        W59480  17.497  17.738   9.186  0.0487 -0.0701 -0.0599
    1W        W59481  14.737  22.835   1.058 -0.3772 -0.2988 -0.0858
    1W        W59482  26.232   8.249   2.491  0.0318 -0.0413  0.3137
    1W        W59483   4.476  29.711   1.356 -0.2120 -0.5760 -0.0698
    1W        W59484   3.591  21.594   0.164  0.0318 -0.0182 -0.0312
    1W        W59485   7.405  16.382   3.008  0.3436  0.1584 -0.1480
    1W        W59486   8.338  27.107   8.193  0.3158  0.1814 -0.2406
    1W        W59487  15.497  21.042   0.072  0.0382  0.0983 -0.0059
    1W        W59488   3.195   6.721   7.272 -0.1714  0.0552 -0.0366
    1W        W59489  27.765   9.189   8.228 -0.0407  0.0350 -0.0217
    1W        W59490   6.634  23.745   1.001 -0.0116  0.2140 -0.0560
    1W        W59491   1.821   6.189   7.309 -0.1724 -0.3039 -0.3414
    1W        W59492   0.434   9.826   2.031  0.1187  0.0762 -0.2435
    1W        W59493  11.545  14.858   0.204 -0.0698  0.2423 -0.0859
    1W        W59494   0.602  19.910   7.066  0.0631 -0.3518  0.0108
    1W        W59495  14.445  25.937   8.280 -0.1029 -0.1985  0.0696
    1W        W59496   4.689   9.114   7.569 -0.1619  0.0492  0.1668
    1W        W59497   0.384  15.251   6.800  0.0937 -0.2364  0.1889
    1W        W59498  28.384   0.658   1.706 -0.1334  0.0760 -0.2811
    1W        W59499  27.469  28.850   7.861  0.2280  0.1441  0.3554
    1W        W59500  14.459   0.907   1.801  0.0242 -0.0976 -0.2906
    1W        W59501  17.628  14.591   8.953 -0.0471  0.0849 -0.0629
    1W        W59502  17.172   8.571   2.355 -0.2375  0.0128 -0.0793
    1W        W59503  21.573  24.447   8.719 -0.0299 -0.0166 -0.0867
    1W        W59504  28.782  16.702   8.632  0.1858  0.1737 -0.1911
    1W        W59505  12.802  23.664   0.782 -0.1443 -0.3968  0.2462
    1W        W59506  13.057  14.999   1.481 -0.0445 -0.2973  0.0905
    1W        W59507  21.315  12.337   1.979  0.1378  0.2650 -0.0827
    1W        W59508  14.941   0.386   1.383  0.0956  0.1270  0.0190
    1W        W59509  22.005  23.920   3.210  0.1019  0.0870  0.1386
    1W        W59510  15.720  29.366   8.179 -0.0300 -0.0392  0.0658
    1W        W59511  13.247   0.282   2.170  0.0953 -0.0462 -0.1349
    1W        W59512  19.338   9.480   0.724  0.1990  0.2443 -0.2430
    1W        W59513  26.215  20.831   1.594 -0.1628 -0.0063 -0.1357
    1W        W59514  14.445  16.400   7.384  0.2650 -0.0348 -0.0338
    1W        W59515  26.122   4.974   0.818  0.0664 -0.0875 -0.1357
    1W        W59516   5.769   7.551   9.023  0.0022 -0.0359  0.1698
    1W        W59517   3.504  29.029   7.251 -0.2435  0.0799  0.1260
    1W        W59518  19.623   9.015   9.335 -0.2102  0.1907 -0.1560
    1W        W59519  12.858  11.813   0.927  0.0503  0.3555 -0.1137
    1W        W59520   6.184   0.548   7.212  0.0989 -0.0169 -0.0475
    1W        W59521  20.925  26.574   9.148  0.1048 -0.0976  0.1584
    1W        W59522  25.217  12.696   0.113  0.2192  0.0763 -0.1809
    1W        W59523  28.098  20.356   0.693 -0.2095 -0.4260 -0.1165
    1W        W59524  26.295   6.667   8.748  0.2459 -0.1993 -0.2323
    1W        W59525   2.343   6.122   0.181 -0.0952 -0.0821 -0.0203
    1W        W59526  19.835  20.154   0.157  0.0237  0.1566  0.0640
    1W        W59527  21.262   0.911   0.570  0.0672  0.2002 -0.0181
    1W        W59528  25.624   4.075   6.460  0.0060 -0.1186  0.1988
    1W        W59529  17.740   6.017   1.414 -0.0898 -0.0479 -0.0401
    1W        W59530  13.791   4.948   8.865 -0.3467  0.2212  0.0556
    1W        W59531   6.941   2.066   8.934  0.4259 -0.2540 -0.0633
    1W        W59532   1.687  11.956   5.960  0.1370  0.0019 -0.1104
    1W        W59533  17.746  28.516   0.840 -0.1120 -0.2452 -0.1526
    1W        W59534  17.067  27.988   0.966  0.2756 -0.0509 -0.0706
    1W        W59535   1.267  20.085   1.990  0.1700  0.0193  0.0613
    1W        W59536   2.962  29.651   8.231  0.0639 -0.0465  0.2223
    1W        W59537  27.186   1.822   6.597  0.0296 -0.0139 -0.0239
    1W        W59538  17.493   5.502   1.494 -0.1313 -0.5152  0.0502
    1W        W59539   3.889  15.946   1.574 -0.0777 -0.0704  0.0751
    1W        W59540  26.848   6.340   1.602  0.0436  0.1091 -0.0654
    1W        W59541  25.036   6.569   9.165  0.2663 -0.1223 -0.1145
    1W        W59542  29.832   7.296   6.063 -0.0122 -0.3764  0.1032
    1W        W59543   1.863  13.895   8.015  0.1278 -0.0060 -0.1724
    1W        W59544  26.199  14.315   0.394 -0.1528 -0.1504 -0.0791
    1W        W59545   5.069   8.800   0.714  0.1281  0.1569  0.0792
    1W        W59546  26.520  20.721   7.576  0.2371  0.1105 -0.3288
    1W        W59547   9.833  13.201   7.518  0.1946 -0.2549 -0.1815
    1W        W59548  27.364  15.256   6.856  0.0424  0.2264 -0.0150
    1W        W59549  16.584  18.914   8.970 -0.1609 -0.0655  0.0454
    1W        W59550   8.930   4.108   0.869  0.0668  0.0314  0.0827
    1W        W59551  10.291  21.989   8.883  0.2415 -0.1121 -0.2089
    1W        W59552  20.616   9.505   1.693 -0.0136 -0.0444  0.1934
    1W        W59553  23.480  29.735   6.794 -0.5222 -0.2180 -0.2842
    1W        W59554  22.069   4.533   2.137  0.1743 -0.1830  0.1490
    1W        W59555  19.519  27.058   8.382  0.0635 -0.1091 -0.2005
    1W        W59556   8.683   8.423   0.086  0.1461  0.0095 -0.3532
    1W        W59557  16.013  29.127   2.414  0.3453  0.2081  0.0019
    1W        W59558  18.235   6.085   2.977 -0.0014  0.2988  0.3025
    1W        W59559   2.037  21.611   0.167  0.2358 -0.2632 -0.0853
    1W        W59560   1.899  11.661   0.781 -0.2198  0.1223  0.3186
    1W        W59561   4.906  13.392   7.471  0.0222  0.1077 -0.0599
    1W        W59562  18.584   9.477   0.109 -0.2343  0.1322  0.0216
    1W        W59563   8.025  14.170   8.721  0.0125 -0.2567 -0.0043
    1W        W59564   4.200   9.961   2.389  0.4058 -0.0708 -0.2836
    1W        W59565  21.792  29.978   1.567  0.0804 -0.0848 -0.1418
    1W        W59566  13.927   0.357   8.020  0.2401 -0.3385  0.2470
    1W        W59567  14.449  25.600   0.726 -0.0189  0.0654 -0.1721
    1W        W59568  25.963  28.160   8.304  0.0733 -0.0175  0.0972
    1W        W59569  12.674   6.035   7.994  0.7268 -0.2550 -0.2272
    1W        W59570  12.119  19.595   9.263  0.2353  0.2720  0.3598
    1W        W59571  24.159  22.478   3.139 -0.0440 -0.0435  0.1660
    1W        W59572   1.001  11.631   8.067  0.0202  0.2149 -0.1070
    1W        W59573  29.567   1.520   2.643 -0.1529  0.0058 -0.1561
    1W        W59574   5.627  16.064   7.414  0.0479 -0.1268  0.2490
    1W        W59575  12.889  27.420   7.387  0.3707 -0.2143  0.0324
    1W        W59576   1.633  22.645   7.159 -0.0465  0.2016 -0.1060
    1W        W59577  15.276  19.482   1.778 -0.0840  0.1094 -0.0594
    1W        W59578  17.764   7.833   7.671 -0.0899 -0.1318 -0.0778
    1W        W59579  30.064  19.156   8.374  0.2902 -0.1167  0.1222
    1W        W59580  17.821   5.146   1.677  0.0344 -0.1881 -0.0914
    1W        W59581  17.292  21.991   1.903  0.0762  0.2467 -0.3048
    1W        W59582   3.219  13.658   6.962 -0.1018  0.2399  0.1883
    1W        W59583   4.759  18.506   6.459 -0.2135 -0.1823  0.1653
    1W        W59584  16.306  17.791   0.410 -0.0844  0.1417  0.0420
    1W        W59585   0.537  23.814   0.698  0.1019  0.0880  0.2606
    1W        W59586  10.416  22.212   8.190 -0.1369 -0.1346  0.1462
    1W        W59587  23.600   8.094   1.570 -0.0760  0.0363  0.1091
    1W        W59588  10.939  16.013   0.744 -0.1370  0.0091 -0.2291
    1W        W59589  26.789   9.675   8.842  0.1330  0.2645 -0.1109
    1W        W59590   8.577  22.426   6.448 -0.2465 -0.0966  0.1852
    1W        W59591   2.965  12.893   7.011  0.0862 -0.1601  0.0649
    1W        W59592   5.731   1.331   8.498  0.2339 -0.1558  0.1783
    1W        W59593  23.999  29.940   7.222  0.1208  0.0008 -0.1699
    1W        W59594  22.939  21.590   1.785 -0.1014 -0.1176 -0.2863
    1W        W59595  19.255  24.215   1.933 -0.0681 -0.1778  0.1529
    1W        W59596  14.672   7.196   7.663  0.1013  0.1002  0.1728
    1W        W59597  12.881  15.196   1.941  0.0208  0.1710 -0.1373
    1W        W59598   8.201   3.327   8.635  0.2933  0.1209  0.2515
    1W        W59599  24.231  28.746   2.637  0.1439  0.0165 -0.0062
    1W        W59600  19.518  19.569   2.268 -0.1393  0.0965  0.3106
    1W        W59601  21.567  11.376   6.696  0.0834  0.0290  0.0398
    1W        W59602  14.870  15.510   2.291 -0.1253  0.1048  0.2058
    1W        W59603  27.980  22.878   9.167  0.2315  0.1031 -0.0829
    1W        W59604  17.327  21.307   7.144  0.1151  0.0618  0.2362
    1W        W59605  23.996   4.929   8.151 -0.1082  0.2243  0.2955
    1W        W59606  12.529   1.006   0.286 -0.0502 -0.0762  0.3016
    1W        W59607  14.626   1.756   3.080 -0.2142  0.1644 -0.0228
    1W        W59608   2.817  10.355   7.188  0.1711  0.2013  0.0056
    1W        W59609   0.207  27.656   2.134  0.2860 -0.0370 -0.1631
    1W        W59610  22.709  16.994   9.212  0.4668  0.2923  0.1777
    1W        W59611  20.820  20.749   7.904 -0.0010  0.3129 -0.2831
    1W        W59612  22.765   8.011   8.172 -0.0415  0.3542  0.2856
    1W        W59613   4.895  12.629   2.427 -0.0434  0.0823 -0.3523
    1W        W59614  28.085  21.495   2.701 -0.2777  0.0003  0.0588
    1W        W59615   5.919  21.646   6.960  0.0693 -0.0747  0.2295
    1W        W59616   2.444  14.737   1.744 -0.0960 -0.1220  0.0600
    1W        W59617  19.692   3.451   1.533  0.0044  0.1799  0.1505
    1W        W59618  19.504   6.009   0.055  0.3705 -0.1982 -0.3033
    1W        W59619  15.933  14.908   9.399 -0.1715  0.0284 -0.0107
    1W        W59620  13.337   8.502   1.652 -0.3333  0.1907 -0.1418
    1W        W59621   0.480  27.415   7.190 -0.1432 -0.0024  0.4732
    1W        W59622  29.629  15.136   6.325 -0.0115 -0.0749 -0.3186
    1W        W59623  19.373  25.014   9.247  0.0926  0.0837  0.0362
    1W        W59624  19.380   5.504   0.952 -0.1369  0.0403 -0.0295
    1W        W59625  10.429  11.578   7.848  0.0204 -0.0785  0.0962
    1W        W59626  18.826  20.947   7.343  0.0204  0.2779 -0.3237
    1W        W59627  29.505   4.644   7.276  0.1260  0.1886  0.0747
    1W        W59628  11.697  21.698   1.644  0.0983 -0.1610 -0.2640
    1W        W59629  27.815  23.464   0.338  0.0697 -0.0422  0.0502
    1W        W59630  17.328   3.290   2.233  0.2952 -0.1594 -0.2675
    1W        W59631  20.211  16.193   1.234 -0.2966  0.0157 -0.0844
    1W        W59632  28.262   4.800   6.320 -0.0650  0.0273 -0.2322
    1W        W59633   1.982   2.402   7.357  0.3921 -0.3520  0.0873
    1W        W59634  24.482   9.274   1.688  0.1851 -0.1997  0.2317
    1W        W59635   7.638  19.402   9.207 -0.0359  0.0400  0.3740
    1W        W59636  23.736  21.561   8.503 -0.1845 -0.1478  0.0528
    1W        W59637  24.692  21.859   6.943 -0.1639  0.1564  0.0328
    1W        W59638  26.651  18.443   1.411  0.0204 -0.4351  0.2464
    1W        W59639   9.229  12.352   1.324  0.0858 -0.0945 -0.1492
    1W        W59640   0.997   8.431   8.023  0.0985  0.3106 -0.0609
    1W        W59641  13.559   0.701   8.089  0.0880  0.0708 -0.0174
    1W        W59642  20.475   5.177   8.053 -0.0444  0.1185 -0.1461
    1W        W59643  22.956  13.033   1.669 -0.0125 -0.2166 -0.1386
    1W        W59644  13.165  15.533   8.930 -0.1126  0.2491  0.0623
    1W        W59645  12.274   0.581   0.634  0.1593 -0.0437 -0.0230
    1W        W59646  21.623   8.929   2.291 -0.0831  0.2134 -0.0508
    1W        W59647  22.527  13.579   7.654  0.1176  0.0272 -0.3828
    1W        W59648   1.904   1.844   7.401 -0.0283 -0.0443 -0.0595
    1W        W59649   0.894   1.267   0.700  0.1442  0.0956  0.0069
    1W        W59650   7.492  15.006   7.726 -0.0367 -0.1357 -0.3326
    1W        W59651  14.459  28.387   8.057  0.0546 -0.2335  0.3908
    1W        W59652  18.453  17.210   8.232 -0.1184  0.1275  0.2050
    1W        W59653   9.081  27.815   1.039 -0.0029 -0.3877  0.4742
    1W        W59654  23.794  22.144   1.433 -0.1851  0.1535  0.1417
    1W        W59655   8.576   7.874   0.028 -0.0419  0.1639  0.1827
    1W        W59656  20.098  23.387   2.941 -0.1794 -0.0908  0.0650
    1W        W59657  21.731  20.769   8.227  0.0291  0.2195 -0.4302
    1W        W59658   7.631   9.641   3.450  0.0338 -0.0220 -0.3334
    1W        W59659  10.679   1.105   2.775  0.2568  0.1612 -0.0097
    1W        W59660   6.028   4.121   2.121 -0.2237  0.4124  0.1304
    1W        W59661   1.993   2.392   2.325  0.0622 -0.1266 -0.4054
    1W        W59662  17.867  15.775   0.033 -0.1048  0.0742 -0.3965
    1W        W59663   8.936  23.317   7.439  0.0909  0.4284 -0.1937
    1W        W59664  15.083   8.428   2.550 -0.0852 -0.1420  0.1898
    1W        W59665  29.217  17.154   5.690 -0.2327 -0.1661 -0.2737
    1W        W59666  12.039  14.315   8.183  0.2776 -0.0156  0.0899
    1W        W59667  19.843   2.048   6.283 -0.0297  0.0212  0.1035
    1W        W59668   1.432   8.268   7.650 -0.0970  0.1093 -0.2251
    1W        W59669  29.320   2.557   9.175 -0.1375 -0.0947  0.1125
    1W        W59670  19.873  23.986   7.494 -0.0986 -0.0016 -0.2271
    1W        W59671  12.409  28.998   2.661  0.0797  0.3624  0.0594
    1W        W59672  27.171   5.882   2.129 -0.3226 -0.5127  0.0697
    1W        W59673  16.902  24.750   8.416 -0.1518  0.0594  0.0935
    1W        W59674  16.135   3.461   2.466  0.0132 -0.1558 -0.2163
    1W        W59675  23.485   2.820   0.827 -0.4611 -0.3106 -0.1243
    1W        W59676  25.541   6.375   2.978 -0.2263  0.1281  0.1079
    1W        W59677  12.457  25.684   6.627  0.2173  0.1329  0.0716
    1W        W59678   6.169  16.488   0.445 -0.1315 -0.4624 -0.1749
    1W        W59679   1.625  15.726   1.332 -0.2365  0.0387  0.2831
    1W        W59680  21.751  21.838   0.551 -0.1221  0.1421  0.1654
    1W        W59681  11.135   8.226   0.791  0.2999  0.1409  0.1885
    1W        W59682  17.529  20.674   8.963  0.1421  0.0074 -0.2120
    1W        W59683  29.870   5.076   2.259  0.3201 -0.0245  0.2007
    1W        W59684  18.133  19.895   2.135 -0.1666 -0.0396  0.0384
    1W        W59685   8.072  25.700   7.499 -0.0003  0.3171 -0.3811
    1W        W59686  28.757   7.000   9.180  0.4604  0.1496 -0.0865
    1W        W59687   3.328   9.037   0.106 -0.1963  0.0096 -0.0586
    1W        W59688  18.092  25.067   0.718 -0.0883  0.1436  0.0951
    1W        W59689  26.791   8.428   0.534 -0.2082  0.0659  0.3570
    1W        W59690  21.232  13.319   0.882  0.1966  0.0553  0.1270
    1W        W59691  25.959  26.912   1.891 -0.3107  0.0875  0.3326
    1W        W59692   6.787   1.302   3.149  0.2861 -0.1592  0.2085
    1W        W59693  12.232  13.872   2.529 -0.1427  0.0769 -0.1600
    1W        W59694   5.313  18.984   1.398  0.2114  0.1465 -0.3074
    1W        W59695  24.072   4.788   2.861 -0.1675 -0.0645  0.0627
    1W        W59696   1.048   5.090   9.129 -0.0994  0.0456 -0.0310
    1W        W59697   9.092   5.606   8.038  0.3238  0.3126 -0.0391
    1W        W59698  28.936  19.002   6.806 -0.0082  0.1650  0.1539
    1W        W59699   3.987  10.762   2.444 -0.3029  0.0727  0.0194
    1W        W59700  27.136   6.254   2.623  0.0488 -0.1895 -0.1071
    1W        W59701   6.021   1.327   1.352 -0.2632  0.0877  0.1914
    1W        W59702   4.974   8.228   8.528 -0.1381  0.0139 -0.3852
    1W        W59703   7.497  16.526   8.918 -0.2739 -0.0702  0.0229
    1W        W59704  14.551   3.596   3.510  0.1579 -0.0439 -0.0043
    1W        W59705  13.064  22.192   7.288  0.0590 -0.1131 -0.0983
    1W        W59706  21.995   4.558   1.343  0.0180 -0.0747 -0.0711
    1W        W59707  14.519  12.262   7.987 -0.0558  0.1525 -0.3044
    1W        W59708  17.014   1.095   3.027 -0.0885 -0.1305  0.0977
    1W        W59709  21.140   4.185   1.724  0.1370 -0.2998 -0.1237
    1W        W59710  21.233   1.835   6.781 -0.0627  0.1859 -0.0923
    1W        W59711   5.985   6.320   0.917 -0.0097 -0.1151 -0.0286
    1W        W59712   5.179  28.396   7.255 -0.3064  0.0313 -0.1337
    1W        W59713   2.690   1.126   0.955  0.3653  0.2121 -0.2808
    1W        W59714  24.775  16.353   1.232  0.0964 -0.0280  0.0507
    1W        W59715  22.386   2.098   2.868 -0.1626 -0.1032  0.4588
    1W        W59716  26.359  26.018   1.194 -0.3789  0.1159  0.1613
    1W        W59717   6.802  24.549   0.666 -0.1259  0.1649  0.2621
    1W        W59718   4.175  19.939   6.333 -0.0713 -0.1669  0.1943
    1W        W59719   0.999   9.320   8.884 -0.1237  0.1301 -0.1657
    1W        W59720  12.003  13.147   8.943  0.2470  0.0736  0.2108
    1W        W59721  13.821  13.518   2.199  0.1084 -0.2259 -0.3411
    1W        W59722  16.904  20.274   8.294  0.4143 -0.0115 -0.1308
    1W        W59723  23.926  12.815   0.274  0.0866  0.0280  0.5017
    1W        W59724  15.256  19.439   7.729  0.2292  0.0443 -0.0598
    1W        W59725  19.993  13.936   8.128 -0.0180  0.0764  0.0632
    1W        W59726   4.675   2.974   7.838 -0.1188  0.0934 -0.1159
    1W        W59727  17.312  11.976   6.499  0.1850  0.3224  0.1479
    1W        W59728   9.418  24.482   2.204  0.3792 -0.0642 -0.2620
    1W        W59729  12.488  13.632   1.712 -0.2334  0.1409  0.6846
    1W        W59730  30.001  14.388   0.502 -0.1347 -0.0657 -0.2266
    1W        W59731  23.961   6.196   2.336 -0.0959 -0.0260  0.0881
    1W        W59732  19.628  26.547   3.272  0.0985  0.3110 -0.2397
    1W        W59733  23.495   7.883   7.155 -0.5012 -0.2671  0.3042
    1W        W59734   2.447  25.002   8.609 -0.2997 -0.0050  0.0418
    1W        W59735   4.892  23.200   7.641  0.1124  0.0702 -0.2979
    1W        W59736  20.193  15.054   0.380 -0.1906  0.0059  0.0816
    1W        W59737  15.685   6.298   1.328  0.0623  0.0395  0.0645
    1W        W59738  23.503  19.333   0.427  0.0917 -0.0102  0.0893
    1W        W59739  22.464  28.322   2.246  0.3493 -0.3086 -0.1130
    1W        W59740   3.041   1.425   1.199 -0.1251 -0.0437  0.0853
    1W        W59741  26.337  22.728   1.335  0.1716 -0.0100 -0.2885
    1W        W59742  27.738  22.410   2.817  0.0342 -0.2039  0.0804
    1W        W59743   3.815  16.748   0.236 -0.0765 -0.0863  0.0369
    1W        W59744  18.555  29.482   6.360 -0.3939  0.3063  0.1652
    1W        W59745  28.744  18.927   9.381  0.0997  0.0406 -0.1736
    1W        W59746  23.484  10.917   0.206 -0.2289 -0.1027  0.0167
    1W        W59747   3.275  15.081   1.590 -0.0962 -0.0504 -0.0440
    1W        W59748  24.872   3.745   0.551  0.0361  0.1187 -0.2652
    1W        W59749  20.772  19.717   0.113  0.1960 -0.0697  0.0417
    1W        W59750  10.174  23.265   8.879  0.1850 -0.1982 -0.1073
    1W        W59751  14.413  27.364   1.552 -0.0574 -0.0816  0.1558
    1W        W59752   1.764   3.997   8.666 -0.1262 -0.0959  0.0916
    1W        W59753  19.016  19.597   2.358  0.0104 -0.1041  0.2375
    1W        W59754  14.145  24.765   2.826 -0.1492 -0.4800  0.3036
    1W        W59755  26.817  27.760   2.326 -0.2954 -0.0247 -0.4230
    1W        W59756  27.997  26.798   2.453  0.0406  0.2003  0.4362
    1W        W59757  25.973  29.003   8.255 -0.0238  0.1560  0.0534
    1W        W59758  15.670   9.273   0.987  0.0195 -0.3332  0.4042
    1W        W59759  18.963  26.508   2.667 -0.0499  0.3285  0.1963
    1W        W59760  23.742   1.079   7.182 -0.0532  0.1744  0.0093
    1W        W59761   5.754   8.265   7.158  0.1119 -0.2797 -0.0087
    1W        W59762  19.047   1.104   7.493 -0.2794  0.0629 -0.1909
    1W        W59763   6.118   7.220   0.865 -0.0583  0.4156 -0.1846
    1W        W59764   7.692  28.478   2.317  0.2124  0.0375 -0.2545
    1W        W59765   5.742   3.395   0.379 -0.3548  0.3520 -0.0102
    1W        W59766  11.962   0.137   1.682  0.4889 -0.0725  0.0502
    1W        W59767  27.110  22.037   9.295 -0.0950 -0.1000 -0.2831
    1W        W59768  19.271  14.233   9.330  0.0213 -0.2397  0.0812
    1W        W59769  12.510  25.232   1.965 -0.1602  0.0722 -0.2694
    1W        W59770  23.358   9.010   7.504 -0.2415 -0.0192 -0.1944
    1W        W59771   1.963  25.348   1.953 -0.1729  0.1245  0.0176
    1W        W59772  28.251  15.025   1.372  0.0907  0.1835  0.0991
    1W        W59773  18.476  10.100   6.784  0.2192  0.1536 -0.1520
    1W        W59774  29.750  11.896   8.062  0.0536 -0.1904  0.2234
    1W        W59775   7.649  16.946   7.217 -0.0400  0.1815 -0.1539
    1W        W59776   4.441  12.742   9.055 -0.0268  0.1393  0.1093
    1W        W59777  18.582  16.451   1.113 -0.0794 -0.3215  0.4316
    1W        W59778   8.948  27.854   2.830 -0.1108 -0.4202  0.1655
    1W        W59779  13.959  29.378   2.005  0.0069 -0.4732 -0.3011
    1W        W59780  25.321   2.505   1.685 -0.1347 -0.0408  0.1325
    1W        W59781  11.651  21.140   1.389  0.0884  0.1008 -0.1922
    1W        W59782  23.338   5.096   7.525 -0.3854  0.1394 -0.1620
    1W        W59783   8.888  18.314   7.891  0.1073 -0.0551 -0.0056
    1W        W59784  12.899   7.573   3.179 -0.1621 -0.0614 -0.0021
    1W        W59785  11.685  11.031   2.329 -0.1242 -0.2198  0.0707
    1W        W59786   7.753  27.328   6.379  0.1120 -0.4664 -0.4520
    1W        W59787  20.511   4.338   2.658  0.0440 -0.0511  0.0837
    1W        W59788  29.603   6.440   8.578 -0.0595 -0.1740  0.1438
    1W        W59789  15.859   5.491   8.577  0.1158 -0.0352  0.1755
    1W        W59790  14.989  21.768   8.094 -0.1962 -0.2156  0.1218
    1W        W59791   7.031   2.854   7.385  0.1279 -0.1423  0.4320
    1W        W59792  23.198   4.254   6.535 -0.1001  0.0249  0.1219
    1W        W59793  29.447  24.333   0.966  0.0513 -0.1377 -0.2564
    1W        W59794  12.966  13.288   8.847  0.0926  0.1020 -0.1834
    1W        W59795  11.175  26.695   8.159 -0.1998 -0.4183  0.2146
    1W        W59796  22.899  11.899   1.682 -0.1184 -0.0678  0.0245
    1W        W59797   7.143  22.040   1.134  0.0832  0.2950  0.1568
    1W        W59798   0.710  28.024   0.778  0.0631  0.2931  0.0295
    1W        W59799   7.827   7.720   1.099 -0.0935  0.3441  0.0137
    1W        W59800  13.128   4.948   0.858 -0.1773 -0.3096 -0.1205
    1W        W59801  10.604  10.843   2.909  0.3189 -0.1381 -0.1025
    1W        W59802  29.364  14.018   6.925 -0.3684  0.1474  0.0423
    1W        W59803   3.678  10.499   8.697 -0.2880  0.1456 -0.0924
    1W        W59804   4.462  23.527   0.942  0.2691  0.1293  0.0939
    1W        W59805  12.540  18.445   7.203  0.2634  0.1747 -0.0684
    1W        W59806  26.718  18.641   5.225  0.0853  0.3692 -0.1548
    1W        W59807   8.809  15.026   7.493 -0.0746 -0.0639  0.1510
    1W        W59808   9.667   5.793   8.742  0.1930  0.1121 -0.0975
    1W        W59809   8.584   8.593   1.981  0.0196  0.3888  0.1701
    1W        W59810   0.622  10.362   1.931 -0.2295 -0.1805  0.2592
    1W        W59811   7.102  16.937   7.059  0.4732  0.5740  0.0148
    1W        W59812   6.060  15.373   2.236  0.0208 -0.3592  0.2171
    1W        W59813  11.201  10.302   8.609 -0.2604 -0.2243  0.3065
    1W        W59814  24.639   9.068   0.633 -0.3785  0.0952 -0.0332
    1W        W59815  22.917   8.221   7.364  0.1741  0.0164 -0.1024
    1W        W59816   5.668  24.632   1.569  0.1504 -0.0832 -0.1107
    1W        W59817   9.249   6.178   8.039  0.0144  0.1180 -0.0831
    1W        W59818  22.485  27.593   7.787  0.0973  0.1111 -0.2686
    1W        W59819  30.043   1.420   0.176  0.0179 -0.0189 -0.2229
    1W        W59820  29.014   5.548   6.624  0.1883 -0.1762  0.1195
    1W        W59821  22.129  24.170   0.346  0.0709  0.1111  0.0962
    1W        W59822  13.252  12.653   7.788  0.1983  0.0236 -0.1255
    1W        W59823  28.734  24.889   1.358  0.1797 -0.0362 -0.1945
    1W        W59824   4.907  12.066   2.301 -0.2675 -0.1769  0.1509
    1W        W59825  18.255  16.881   1.995  0.0070  0.2061 -0.0580
    1W        W59826  25.971  29.493   8.527  0.2657 -0.3564  0.0742
    1W        W59827   9.366   6.700   8.454 -0.3093 -0.1459  0.0881
    1W        W59828  13.355  28.439   7.917  0.0972  0.0823  0.2591
    1W        W59829  16.892  20.130   1.054 -0.3583  0.1136 -0.2066
    1W        W59830   6.287  14.910   8.649 -0.0427  0.1540  0.6793
    1W        W59831  23.525   2.307   7.222 -0.0891  0.0894  0.0615
    1W        W59832   6.265  23.925   1.278  0.1854  0.1197 -0.1044
    1W        W59833   3.569  23.149   9.321 -0.2068 -0.2815  0.0891
    1W        W59834  29.368  17.725   9.236 -0.1341  0.2007  0.0267
    1W        W59835  26.304   2.788   6.321 -0.1462 -0.3252  0.3027
    1W        W59836   4.246   4.645   7.179 -0.0023  0.1214  0.0508
    1W        W59837   1.074  23.380   6.249  0.0685  0.1703 -0.3125
    1W        W59838   4.220  15.450   0.850 -0.1654  0.2176  0.1657
    1W        W59839  22.614  24.736   7.370  0.1197 -0.0886 -0.1319
    1W        W59840  20.262   1.270   8.020  0.0053  0.0712 -0.1159
    1W        W59841  25.031  10.573   8.701  0.0579 -0.1067  0.1460
    1W        W59842  19.224   7.412   7.909  0.0441 -0.3854 -0.3853
    1W        W59843   7.811  12.512   2.572  0.2551  0.0736  0.2601
    1W        W59844  27.886  19.792   1.833 -0.3020  0.0475 -0.0695
    1W        W59845  26.422  19.854   9.087  0.1206  0.0692  0.0807
    1W        W59846  20.695  12.727   0.190 -0.1983  0.2740  0.0563
    1W        W59847  26.962  25.932   8.392  0.0135 -0.2326 -0.2027
    1W        W59848   8.191   9.630   2.591 -0.1339  0.1341  0.2374
    1W        W59849   1.228  22.077   7.735 -0.4706 -0.0945 -0.1726
    1W        W59850  18.014  28.792   1.605 -0.0046  0.0298  0.0406
    1W        W59851  12.091  29.203   8.553  0.0738 -0.0700 -0.1214
    1W        W59852  23.060   5.635   0.992 -0.1705  0.3034  0.0741
    1W        W59853  16.851   7.305   2.255  0.1982 -0.2369 -0.2838
    1W        W59854   4.338  15.749   1.538 -0.1185  0.1204  0.0558
    1W        W59855   4.325  10.146   7.830  0.0563  0.1286 -0.1880
    1W        W59856  28.071  25.573   2.018  0.1414  0.0802  0.0021
    1W        W59857   8.886   8.773   1.525 -0.0947  0.2928 -0.2100
    1W        W59858  15.365  20.859   8.311 -0.0452  0.0403 -0.1320
    1W        W59859  21.369  30.150   0.308 -0.0743 -0.2908 -0.3130
    1W        W59860  28.604   4.497   6.749 -0.2447 -0.2486  0.1002
    1W        W59861   1.056  19.628   8.240 -0.1001 -0.1805  0.0815
    1W        W59862   1.409  16.293   7.275  0.1926 -0.2840 -0.1136
    1W        W59863  24.177  14.934   6.904  0.2773  0.0491  0.3644
    1W        W59864  16.441   0.165   7.425  0.2146 -0.0557 -0.1745
    1W        W59865  23.847   2.098   8.023 -0.0232  0.1385  0.2628
    1W        W59866  15.284  16.057   7.275  0.0049 -0.0392  0.0387
    1W        W59867  16.501  24.540   0.714  0.1219 -0.0320  0.4658
    1W        W59868  25.835  10.897   8.254 -0.0488 -0.0390  0.2344
    1W        W59869   9.163   5.285   2.027 -0.0148 -0.3932  0.1530
    1W        W59870   0.516  26.112   7.100 -0.0525 -0.0835 -0.2543
    1W        W59871  25.597  25.517   8.310 -0.2595 -0.1532 -0.0905
    1W        W59872   8.465  18.787   6.889  0.1501 -0.1532 -0.1456
    1W        W59873  16.819  27.918   2.786  0.0307  0.1094  0.1556
    1W        W59874   8.089  19.870   1.503 -0.0817  0.0599 -0.0893
    1W        W59875  21.280  22.012   0.527  0.0736 -0.0113 -0.1749
    1W        W59876  11.330  30.091   0.487 -0.3109  0.3010 -0.0224
    1W        W59877  22.419  15.095   7.118 -0.0366  0.1911  0.1738
    1W        W59878  15.474  11.869   1.650 -0.3262 -0.1607  0.3042
    1W        W59879  18.292   5.263   3.381 -0.0044 -0.0791  0.0040
    1W        W59880  20.146   0.839   6.641 -0.1168  0.2440 -0.2400
    1W        W59881  15.472  11.519   2.011 -0.0458 -0.2412  0.1224
    1W        W59882  25.541   0.157   7.430 -0.1434 -0.0107 -0.0148
    1W        W59883   7.602  10.509   8.096  0.0642  0.1069  0.0133
    1W        W59884   1.313  26.056   1.559 -0.0680 -0.0305  0.0450
    1W        W59885   6.384  26.263   0.948  0.1278  0.1384 -0.3784
    1W        W59886  29.158  27.676   7.680 -0.1683  0.0113  0.1998
    1W        W59887  18.165   0.473   2.406  0.1876 -0.0043 -0.0008
    1W        W59888  27.606  12.039   7.946  0.0558  0.0504 -0.2105
    1W        W59889   7.663  20.895   1.137 -0.1366 -0.0994  0.1962
    1W        W59890  25.353  23.064   6.987 -0.0894  0.0406  0.0054
    1W        W59891   3.147  10.581   2.914 -0.0749  0.2199 -0.1008
    1W        W59892  29.048  14.321   6.497  0.1229 -0.1397 -0.0529
    1W        W59893  18.222  21.723   2.100  0.0657 -0.0351  0.1107
    1W        W59894   2.580   6.520   3.519  0.0814 -0.2096 -0.0815
    1W        W59895  29.465   2.638   1.386  0.1019  0.5004 -0.0708
    1W        W59896   2.431  19.850   6.857 -0.0486 -0.1231 -0.1875
    1W        W59897  20.358  26.824   2.356 -0.0899 -0.1308  0.1841
    1W        W59898  20.817  10.416   1.420 -0.0654  0.2092  0.1001
    1W        W59899  18.476   3.468   3.461 -0.2159  0.6969 -0.1102
    1W        W59900   6.615  14.650   8.904 -0.0599  0.2587 -0.0950
    1W        W59901  27.616  21.463   7.180  0.1874  0.1311  0.0869
    1W        W59902  19.085   3.811   8.306 -0.0523  0.1442  0.1333
    1W        W59903  25.391   8.779   8.238 -0.1181  0.1837  0.1243
    1W        W59904  10.790   0.719   2.042  0.1775  0.0620 -0.3403
    1W        W59905  20.316  26.245   0.419 -0.1186  0.0206  0.0184
    1W        W59906   3.586  23.218   1.691 -0.1450  0.1247  0.1256
    1W        W59907  22.439   3.904   9.106 -0.2125 -0.2655 -0.1411
    1W        W59908  25.576   3.854   1.172 -0.0265  0.1219 -0.3102
    1W        W59909   9.467   5.155   8.325  0.2173  0.0087 -0.2911
    1W        W59910   5.078  26.393   0.321 -0.1965 -0.0498  0.1121
    1W        W59911   2.314   1.781   1.491  0.4779 -0.1316 -0.1370
    1W        W59912   4.930  13.655   1.887 -0.2122 -0.0679  0.3940
    1W        W59913   9.948  24.755   8.309 -0.3117  0.1287  0.1837
    1W        W59914  28.256   7.500   6.506  0.0299  0.2558  0.1280
    1W        W59915  12.092  13.265   7.740  0.0015  0.0396  0.2821
    1W        W59916   5.776  12.644   2.355  0.4152  0.1210  0.3764
    1W        W59917  23.563  29.177   8.420 -0.0437  0.2074 -0.3625
    1W        W59918  17.182  21.897   7.872 -0.0743 -0.1742  0.1355
    1W        W59919  20.786  24.602   8.630 -0.1134  0.1407  0.1594
    1W        W59920  18.296   2.752   7.810 -0.0282  0.0950  0.1153
    1W        W59921   6.183   5.966   8.867  0.0431 -0.0143  0.0298
    1W        W59922  26.828  21.461   2.017  0.0519 -0.1053  0.1457
    1W        W59923  26.110  24.233   8.292  0.0654 -0.0599 -0.1600
    1W        W59924   3.507  18.128   7.353  0.0519 -0.0398 -0.0104
    1W        W59925   2.896  16.853   8.447 -0.0719 -0.0276  0.1038
    1W        W59926  27.475  11.913   1.372 -0.0683 -0.1736 -0.1350
    1W        W59927   3.630  23.856   6.463  0.0115 -0.1471  0.0076
    1W        W59928  16.336   9.118   8.615  0.1809 -0.1227 -0.0557
    1W        W59929   5.261   0.492   1.209  0.0841  0.0882  0.1392
    1W        W59930  27.884   5.077   7.359  0.1306  0.0945 -0.3867
    1W        W59931  27.781  14.338   7.662 -0.1749 -0.0261  0.0335
    1W        W59932  26.064  22.459   0.912  0.1755  0.0519 -0.3689
    1W        W59933  21.844  18.403   0.299  0.0097  0.1109 -0.1349
    1W        W59934   0.592  13.657   0.445 -0.2799  0.0409  0.0998
    1W        W59935  17.141  17.684   1.610  0.1948 -0.0400 -0.0036
    1W        W59936  26.231   0.488   0.171  0.0190  0.2705 -0.1368
    1W        W59937   2.765  24.483   7.457 -0.0934  0.0977 -0.0740
    1W        W59938  22.645   5.708   0.833 -0.0709  0.1952  0.1479
    1W        W59939  27.317  20.321   5.635  0.0300  0.0052  0.4890
    1W        W59940  22.294  28.644   0.354 -0.0739  0.1645  0.1488
    1W        W59941  16.903  12.286   0.075 -0.1580 -0.2374 -0.1232
    1W        W59942   4.609   5.556   0.308  0.0502  0.1516 -0.1391
    1W        W59943   4.996   4.878   2.496 -0.3102 -0.3354  0.0175
    1W        W59944   2.883   6.185   6.959  0.0438  0.1331  0.0242
    1W        W59945   0.814  12.587   1.495 -0.0409  0.0730  0.2368
    1W        W59946  13.653  17.713   9.349 -0.0334  0.5793 -0.0115
    1W        W59947  13.841   5.082   9.350  0.2975  0.2858 -0.2265
    1W        W59948  24.562  18.087   7.934 -0.0562  0.0964  0.1536
    1W        W59949  29.886  29.751   1.344 -0.1510 -0.0622  0.1864
    1W        W59950  10.675   8.715   1.286 -0.2153  0.4315  0.0690
    1W        W59951  16.819  26.134   1.378 -0.0032  0.0751  0.0620
    1W        W59952  27.293  15.769   1.212  0.1589  0.0662  0.0265
    1W        W59953  17.600  22.374   1.963  0.0014  0.0150  0.1833
    1W        W59954   3.115  28.271   2.062  0.2161 -0.2369  0.0135
    1W        W59955  25.828   8.382   6.544  0.2360 -0.2672  0.0296
    1W        W59956   8.051   8.780   3.308 -0.0817  0.1075 -0.2301
    1W        W59957   9.331  14.033   1.165  0.0790  0.1189  0.0758
    1W        W59958  27.869   7.034   1.227  0.0021  0.3284  0.0072
    1W        W59959  23.530  10.028   6.340  0.1441 -0.0684  0.3363
    1W        W59960  24.097  18.938   7.252 -0.0305 -0.1236 -0.0461
    1W        W59961  28.863  26.570   8.543 -0.0897  0.0449  0.0524
    1W        W59962  14.516  19.926   2.085 -0.1623  0.0159  0.0046
    1W        W59963  29.811   8.834   7.733 -0.1728 -0.3821  0.2050
    1W        W59964  12.514  28.227   2.232 -0.0891 -0.1569 -0.1512
    1W        W59965  17.880  22.635   8.189  0.0676 -0.1714 -0.1986
    1W        W59966  25.130   6.429   0.277 -0.0081  0.1993 -0.0262
    1W        W59967  15.941  28.624   2.549 -0.1202  0.1375 -0.1273
    1W        W59968   3.273  27.723   2.098  0.1772 -0.0686 -0.2158
    1W        W59969  13.606   3.683   0.007  0.0468 -0.1379  0.1658
    1W        W59970  13.493   9.436   7.977  0.1061  0.0971  0.0980
    1W        W59971   1.512  20.057   7.647  0.1618  0.0024 -0.0178
    1W        W59972  29.414   3.667   8.341 -0.1300  0.0023 -0.1733
    1W        W59973  26.497  28.434   7.746 -0.0632  0.0104  0.3100
    1W        W59974  24.360   8.272   0.485 -0.0200 -0.2018 -0.0483
    1W        W59975  26.412   3.436   2.159 -0.3842  0.1576  0.1501
    1W        W59976  13.487   1.149   0.024  0.3182  0.1768  0.0656
    1W        W59977   3.814   1.284   0.336  0.2675 -0.4400 -0.0771
    1W        W59978   5.980   5.890   1.062  0.0673 -0.2289 -0.1861
    1W        W59979   7.197  22.261   6.915 -0.1553  0.2041  0.2584
    1W        W59980   8.765  29.339   0.280 -0.0506 -0.1985  0.1809
    1W        W59981   2.889  16.856   1.446  0.2695 -0.1130  0.1242
    1W        W59982   0.071  22.101   6.332 -0.3197 -0.0549  0.0854
    1W        W59983  19.542  17.505   0.009 -0.1338  0.0820  0.1212
    1W        W59984   9.153  14.726   7.594  0.0215 -0.1211 -0.0553
    1W        W59985   8.437  20.971   6.210 -0.1685 -0.0904 -0.3223
    1W        W59986  25.651  17.485   8.356  0.0798  0.0495  0.0692
    1W        W59987  21.305  19.289   8.179 -0.1364  0.0534  0.0475
    1W        W59988  13.197  22.073   8.218  0.2406  0.0367 -0.3522
    1W        W59989   0.885  13.468   1.763  0.3552 -0.3537  0.3917
    1W        W59990  10.781  12.702   2.134 -0.0025  0.3387  0.1673
    1W        W59991  27.911   0.342   1.754 -0.3615  0.0008 -0.0886
    1W        W59992   5.472   7.623   1.872  0.2083 -0.1721  0.0034
    1W        W59993   1.124  18.147   8.409 -0.3088  0.1797 -0.0513
    1W        W59994  13.965  11.348   1.015  0.0446  0.0816 -0.2217
    1W        W59995  27.738  12.035   8.813 -0.0436 -0.0328  0.0047
    1W        W59996  27.584  27.135   8.261  0.1375 -0.1019  0.1979
    1W        W59997  18.880   6.090   7.918 -0.2813 -0.0935  0.1375
    1W        W59998  13.135   4.158   8.797  0.1450 -0.3250  0.5161
    1W        W59999  21.640  25.927   0.868  0.1830 -0.0356  0.1859
    1W        W60000  22.607  28.004   0.843 -0.0751 -0.0119 -0.0056
    1W        W60001   2.580   3.903   7.917 -0.1707  0.2218  0.5223
    1W        W60002  19.370  18.306   8.285 -0.1194 -0.0240 -0.1465
    1W        W60003  13.555  15.181   7.575 -0.1203 -0.1446 -0.0341
    1W        W60004  18.701  26.260   7.801  0.0668 -0.2464  0.3001
    1W        W60005  26.432  29.023   0.724  0.1068 -0.0728  0.2073
    1W        W60006  10.305  22.414   8.640  0.3592 -0.2110  0.1495
    1W        W60007   3.536   3.526   8.604  0.0937 -0.0107 -0.2276
    1W        W60008  19.137  22.114   0.570 -0.0452 -0.4856 -0.2456
    1W        W60009  29.016   6.328   8.476 -0.1632  0.0972  0.1337
    1W        W60010  29.979  22.591   9.371  0.0691 -0.4205 -0.0423
    1W        W60011  14.358   1.057   9.180  0.0780  0.3863  0.0295
    1W        W60012  25.782  22.474   2.452  0.1386  0.0589  0.1524
    1W        W60013  23.622  20.836   7.692  0.2739 -0.3480 -0.0366
    1W        W60014  15.831   6.991   1.587 -0.1144  0.0797  0.0534
    1W        W60015  16.578  11.015   1.817 -0.2897 -0.0075 -0.0324
    1W        W60016  11.212  24.486   0.370 -0.0817  0.0986 -0.1672
    1W        W60017  18.375   4.532   2.817  0.1234  0.2518 -0.1062
    1W        W60018   1.256  21.716   8.921  0.0403 -0.0209 -0.0017
    1W        W60019  15.917  16.463   8.236 -0.0383  0.1690  0.0937
    1W        W60020  16.704  17.049   8.219 -0.2679  0.5017 -0.1557
    1W        W60021  12.207   6.373   3.838  0.2465  0.2043 -0.1089
    1W        W60022  21.611  19.176   6.948  0.3057 -0.1805 -0.0170
    1W        W60023  23.267  23.457   8.172  0.0852 -0.2568  0.1823
    1W        W60024   8.418  21.401   7.399  0.2117  0.1422 -0.1111
    1W        W60025  29.701   2.902   8.086 -0.2640  0.1410 -0.0043
    1W        W60026  19.451  13.811   7.940 -0.1680  0.4381 -0.5294
    1W        W60027   4.103   2.532   2.475  0.3777  0.2440  0.0632
    1W        W60028   6.057  25.418   1.210 -0.0139 -0.0869  0.1357
    1W        W60029   7.552  29.322   2.084  0.0323  0.3310 -0.0907
    1W        W60030  12.745   4.487   0.218 -0.0794  0.2315 -0.1878
    1W        W60031  10.291   7.512   8.358 -0.0446  0.2089 -0.0813
    1W        W60032  15.229  22.677   1.088 -0.0579  0.2610 -0.1776
    1W        W60033   2.649  22.737   0.114 -0.0064  0.1745  0.1412
    1W        W60034  26.821  18.744   6.230  0.0828  0.3018  0.0113
    1W        W60035   9.512  29.187   2.852 -0.1407 -0.1344  0.1689
    1W        W60036   5.918   5.429   7.651 -0.2698 -0.1689 -0.0305
    1W        W60037   5.453   3.456   1.665 -0.0909 -0.0633  0.3208
    1W        W60038  17.462   3.211   3.218  0.2109 -0.2085 -0.1138
    1W        W60039  11.346  14.786   1.902  0.1666 -0.1829  0.1782
    1W        W60040  15.821  27.231   6.549 -0.2282 -0.1119  0.1913
    1W        W60041  20.331   2.232   8.429 -0.0403  0.0798 -0.0610
    1W        W60042  16.509  12.842   0.906  0.1049 -0.1106  0.1344
    1W        W60043  18.077  10.901   0.625 -0.1844  0.0130 -0.3542
    1W        W60044   8.556  17.138   2.582  0.1783 -0.4399 -0.0120
    1W        W60045  28.028   2.320   8.888  0.0590  0.1898  0.3828
    1W        W60046   4.153  28.622   8.392 -0.0823  0.1492  0.2816
    1W        W60047  27.602  27.194   2.299  0.0284 -0.0667  0.1868
    1W        W60048  14.890  28.968   8.315  0.0895  0.1244 -0.2531
    1W        W60049  19.127  21.350   6.594  0.0553 -0.2272  0.0466
    1W        W60050  16.722   6.136   0.511  0.0019 -0.0390  0.0943
    1W        W60051  25.808   7.390   1.474  0.0090 -0.3617  0.0541
    1W        W60052  12.337  22.866   8.052  0.0096 -0.0010 -0.1324
    1W        W60053   7.453  12.881   1.359 -0.0792 -0.0679  0.0498
    1W        W60054   6.209   4.635   2.422  0.1507 -0.1244  0.1047
    1W        W60055   3.891   0.112   3.137  0.1591 -0.0321  0.0565
    1W        W60056  25.749  29.992   2.393 -0.0485  0.1215  0.0665
    1W        W60057  16.483   6.798   2.106 -0.4272 -0.1188  0.1483
    1W        W60058   3.801  23.425   6.159  0.0481 -0.1868  0.1143
    1W        W60059  14.695   8.170   2.903 -0.0297 -0.2405  0.2424
    1W        W60060  14.744   4.410   8.167 -0.1330  0.2806 -0.0087
    1W        W60061  13.525  22.285   8.569 -0.3444 -0.0794 -0.0252
    1W        W60062   6.799   8.549   2.220 -0.1340 -0.0747 -0.0386
    1W        W60063  19.584  15.624   9.040  0.1024  0.4399 -0.1112
    1W        W60064  13.347   1.089   0.605 -0.1771 -0.0491  0.0182
    1W        W60065  21.390   0.153   8.823  0.0300 -0.0352  0.0041
    1W        W60066   6.288  28.419   7.848  0.0321  0.3885 -0.2011
    1W        W60067  20.272   1.770   8.213 -0.1761 -0.0995 -0.0311
    1W        W60068   5.549   1.000   1.676 -0.2845 -0.0669  0.0209
    1W        W60069  23.802   0.097   1.483  0.2603 -0.2799 -0.0237
    1W        W60070   1.813   7.930   7.462  0.2267  0.1500 -0.0083
    1W        W60071  22.198   6.803   7.377 -0.1476  0.1087  0.1269
    1W        W60072  26.988  15.097   6.530  0.3885 -0.0067  0.1499
    1W        W60073   3.696  20.205   6.430 -0.3041  0.1175 -0.0049
    1W        W60074  11.422  19.702   0.511  0.0279 -0.0003 -0.0293
    1W        W60075  15.207  18.285   2.351  0.0388  0.1553  0.0300
    1W        W60076  16.071   3.815   3.790  0.0606  0.1216  0.0306
    1W        W60077   5.409  12.428   3.468  0.4017 -0.2521  0.3122
    1W        W60078   5.089   1.934   8.660 -0.0174 -0.2011  0.1694
    1W        W60079  23.721  15.504   1.847  0.0205  0.1735  0.0884
    1W        W60080  17.530  24.917   8.567  0.1328 -0.2462 -0.0370
    1W        W60081   3.210  21.117   5.412  0.1300 -0.1160 -0.0113
    1W        W60082  10.759   2.900   2.174 -0.0253  0.2024 -0.1759
    1W        W60083  13.868   9.065   1.451 -0.0425 -0.5376 -0.0105
    1W        W60084   3.769   1.433   7.485  0.0855  0.2322  0.2950
    1W        W60085   6.532  10.149   2.992  0.0948  0.3151 -0.4020
    1W        W60086   0.820  10.939   0.706  0.0506  0.1187 -0.0210
    1W        W60087  22.335   5.175   7.472  0.2472  0.1684  0.1866
    1W        W60088  11.575  21.137   6.978  0.1826  0.0223 -0.1490
    1W        W60089  24.774  11.695   8.275 -0.1186 -0.1977 -0.0373
    1W        W60090  27.694  12.246   1.006  0.0863  0.0064  0.1131
    1W        W60091  18.861   2.002   3.131 -0.0162  0.0729  0.1173
    1W        W60092  16.976  26.924   2.289 -0.2478  0.2106 -0.1355
    1W        W60093  21.632  24.048   2.923  0.0929 -0.0291  0.1675
    1W        W60094  18.331  25.380   7.343  0.4465  0.2447 -0.1592
    1W        W60095  22.375  22.246   6.966  0.0905  0.1178  0.0350
    1W        W60096  24.407  15.355   2.213 -0.2001  0.0675 -0.0425
    1W        W60097  25.264  13.543   9.257 -0.0517  0.0326 -0.0286
    1W        W60098   9.141  27.867   8.481 -0.0757  0.0315 -0.1611
    1W        W60099   5.714   1.902   9.221  0.0668 -0.0284 -0.0186
    1W        W60100  19.378   2.179   0.254 -0.2819  0.2572  0.2608
    1W        W60101  13.768  24.163   6.429  0.2120 -0.0050  0.0168
    1W        W60102   9.640   1.496   8.923 -0.2411  0.2711 -0.0182
    1W        W60103   1.233  22.890   6.237  0.0766  0.0261 -0.0135
    1W        W60104  18.870   1.602   8.421 -0.0857 -0.3541  0.1440
    1W        W60105  12.441   0.252   7.359  0.0378 -0.0369  0.2140
    1W        W60106  20.125  24.113   0.980 -0.0773 -0.1210 -0.2562
    1W        W60107  14.672   4.916   7.318  0.0006 -0.1926  0.0790
    1W        W60108  17.316   7.762   7.906  0.0248  0.1656 -0.1759
    1W        W60109  26.698  15.434   5.628  0.1578 -0.3537  0.4406
    1W        W60110   4.992  15.494   7.241 -0.0060  0.1759 -0.1936
    1W        W60111  27.160  21.832   8.120 -0.2098  0.2278 -0.2060
    1W        W60112  24.956  13.804   6.772 -0.0638 -0.1158  0.1173
    1W        W60113   7.506   3.185   7.963 -0.1043  0.0517  0.5486
    1W        W60114  12.495  17.394   1.939  0.0855 -0.0547 -0.0976
    1W        W60115  13.750  24.748   9.362 -0.0833 -0.2521  0.1229
    1W        W60116   1.746   3.859   3.390 -0.1329 -0.0216 -0.0416
    1W        W60117  20.635   8.228   9.111 -0.4553 -0.0676 -0.1414
    1W        W60118   6.242  22.499   7.908 -0.0642 -0.2865 -0.0547
    1W        W60119  17.357  27.729   0.618  0.4124 -0.0923 -0.4071
    1W        W60120  26.494  15.395   7.777 -0.2219  0.1359  0.1525
    1W        W60121  16.488  24.962   2.495  0.0958 -0.0454  0.0561
    1W        W60122   0.430  11.212   8.939  0.0084 -0.0354  0.0758
    1W        W60123  25.287  28.252   1.007  0.1435  0.0114 -0.0005
    1W        W60124   7.298  15.411   1.622 -0.0976 -0.1113  0.2165
    1W        W60125  27.485  17.000   8.146  0.1633  0.3247 -0.0493
    1W        W60126   6.453   2.932   2.583 -0.2424  0.3250 -0.2434
    1W        W60127  24.283  21.894   1.278  0.0022  0.1490  0.3514
    1W        W60128  12.100   3.554   7.440  0.0261  0.1697 -0.1968
    1W        W60129   3.965   8.368   2.056 -0.1287  0.2946 -0.0296
    1W        W60130  14.575  28.245   7.531  0.2422 -0.1237  0.3555
    1W        W60131  11.462   9.131   1.658 -0.0979 -0.0919  0.1983
    1W        W60132  24.713   3.698   8.895 -0.1171  0.3304 -0.4828
    1W        W60133  23.922  21.997   0.935 -0.0735  0.1449 -0.0561
    1W        W60134   4.311   2.794   7.523  0.2483 -0.3100 -0.1055
    1W        W60135  15.792   0.410   4.047 -0.1220  0.2585 -0.0085
    1W        W60136   6.444  28.234   2.130  0.1742 -0.5328 -0.3078
    1W        W60137  23.802   7.075   2.734  0.2594  0.0280  0.1010
    1W        W60138  16.855  25.398   3.291  0.0319 -0.3178 -0.1087
    1W        W60139   9.328   6.046   0.890  0.0743  0.1171  0.2970
    1W        W60140  13.323  24.277   0.175  0.1418  0.0996 -0.2269
    1W        W60141   9.290  24.306   6.445  0.1608  0.1135  0.0745
    1W        W60142  14.830   6.367   0.459 -0.3562  0.1445 -0.2400
    1W        W60143   2.517  10.109   7.506 -0.0006  0.1600  0.2264
    1W        W60144  13.554   3.350   7.526  0.4077 -0.0421  0.2918
    1W        W60145   9.056  12.309   9.349  0.1148 -0.0318  0.0205
    1W        W60146   4.344  16.313   1.110 -0.1715  0.1842 -0.0682
    1W        W60147  28.077  11.790   6.375 -0.1235 -0.1553  0.1297
    1W        W60148   3.649  24.908   1.991  0.1981 -0.0395 -0.0328
    1W        W60149  25.408   2.082   8.952 -0.1650 -0.0607 -0.0363
    1W        W60150  18.299  19.855   1.020 -0.1343 -0.1865 -0.3187
    1W        W60151  23.255  24.738   9.047 -0.3251  0.0805  0.4727
    1W        W60152  27.348  26.969   7.896 -0.2724  0.0735  0.0872
    1W        W60153  25.937  22.892   0.007 -0.1524 -0.0336  0.4173
    1W        W60154  17.654  28.529   8.941 -0.3057 -0.2140 -0.3205
    1W        W60155  14.649  26.908   1.751  0.0475  0.2088  0.1186
    1W        W60156  10.676  16.227   9.329  0.2386  0.0396 -0.0582
    1W        W60157   7.468  23.826   6.101 -0.0901  0.1190  0.0470
    1W        W60158  12.364  20.417   0.052 -0.1855  0.0480  0.3098
    1W        W60159  21.330  22.775   9.367  0.0183  0.2563  0.1460
    1W        W60160  16.518  21.306   2.000 -0.2549 -0.0419 -0.2029
    1W        W60161  14.312  27.542   6.466  0.0821 -0.0767  0.0976
    1W        W60162   1.075  15.456   7.118 -0.1349 -0.1726  0.3332
    1W        W60163  11.212   9.491   1.290 -0.1336  0.1338 -0.0186
    1W        W60164  20.877   8.767   6.789 -0.2118  0.1238 -0.0491
    1W        W60165   6.511  21.375   8.425  0.1862 -0.0700  0.0345
    1W        W60166   8.670  20.848   0.164  0.0338  0.2678 -0.2100
    1W        W60167  30.146  13.922   5.861  0.2698  0.1498 -0.2370
    1W        W60168   8.525  23.756   5.475 -0.0559 -0.0473 -0.1916
    1W        W60169  20.428   5.367   1.131  0.0204 -0.1373 -0.0949
    1W        W60170   5.774  17.794   6.272 -0.2241  0.3647  0.1121
    1W        W60171   3.818  25.112   0.944 -0.2640 -0.0944 -0.1043
    1W        W60172  11.643  25.748   0.272  0.0553  0.2245  0.0060
    1W        W60173  15.551  12.453   1.657 -0.1236 -0.0613  0.0890
    1W        W60174   2.394  29.584   8.202  0.3756  0.2217  0.0101
    1W        W60175   7.961  27.308   7.404  0.2452  0.3136 -0.0079
    1W        W60176  16.644   9.789   2.453  0.0177  0.2626  0.1401
    1W        W60177   4.245  14.501   0.870  0.0962 -0.0219 -0.2011
    1W        W60178   7.074  26.525   0.529 -0.2170 -0.0502 -0.1419
    1W        W60179  16.607  13.492   2.073  0.0884 -0.0300  0.0101
    1W        W60180  10.805  22.262   5.862  0.2237 -0.0818 -0.0975
    1W        W60181  11.258  10.199   1.025  0.2106 -0.2254 -0.2040
    1W        W60182   1.597  22.307   9.225  0.0869 -0.0623  0.1896
    1W        W60183  21.419  19.549   6.697 -0.0520  0.0218 -0.0435
    1W        W60184  10.959   2.887   0.920  0.4329 -0.2662  0.3315
    1W        W60185  14.146   8.653   2.063 -0.1992 -0.1804  0.0380
    1W        W60186  23.599   8.460   8.643  0.2677 -0.0691 -0.3012
    1W        W60187  10.131  11.107   1.308 -0.0289  0.0055  0.3511
    1W        W60188  18.631  25.523   0.089  0.2271  0.1182 -0.1970
    1W        W60189  29.808  14.227   2.106  0.0742  0.0220  0.0030
    1W        W60190  22.944  24.994   7.045  0.2403  0.0468 -0.2532
    1W        W60191   5.991  27.384   1.349  0.0249 -0.0414  0.4314
    1W        W60192   4.844   7.962   0.040 -0.0554 -0.1043 -0.0197
    1W        W60193  25.601  28.021   8.707  0.0403  0.1164 -0.0827
    1W        W60194  23.338   4.047   2.236 -0.1800 -0.1207  0.1270
    1W        W60195  20.215   3.244   2.934 -0.2580  0.1288  0.0241
    1W        W60196  20.367   6.245   2.795  0.0926 -0.0320  0.1495
    1W        W60197  24.814  11.618   7.346  0.3984 -0.1084  0.1370
    1W        W60198  25.234  19.071   1.530  0.1350 -0.1460  0.3188
    1W        W60199  29.179   6.605   6.251 -0.0051  0.1667  0.4721
    1W        W60200  15.186   4.874   1.176 -0.2514 -0.5428 -0.0314
    1W        W60201  17.510  26.263   6.631 -0.1369  0.0185  0.0161
    1W        W60202  13.696   7.927   7.768 -0.2090 -0.3800 -0.2001
    1W        W60203   0.807   0.661   0.109 -0.2992 -0.1945  0.0870
    1W        W60204  29.420  11.172   5.916 -0.0411  0.1846 -0.1776
    1W        W60205   0.048  13.528   6.669  0.0168 -0.1443  0.1513
    1W        W60206  18.479  19.470   8.639 -0.1132  0.0487  0.1579
    1W        W60207   4.928   1.522   0.200 -0.1141 -0.0852  0.0198
    1W        W60208  19.839  25.853   1.590  0.1324 -0.1624 -0.0963
    1W        W60209  29.134  19.177   0.272  0.0598  0.0257  0.3133
    1W        W60210   1.367   8.389   0.357 -0.0011 -0.1033  0.0780
    1W        W60211   6.847   2.956   7.792  0.4220 -0.1557  0.1156
    1W        W60212   9.912  13.667   0.748  0.1753  0.0220 -0.0957
    1W        W60213  24.293  15.291   0.733 -0.2698  0.1377  0.1056
    1W        W60214   2.920  14.555   9.098  0.1204 -0.1518 -0.0940
    1W        W60215   1.922  29.678   9.092 -0.1987  0.3129  0.2888
    1W        W60216   5.533  25.587   1.188  0.1028  0.1216 -0.3728
    1W        W60217   2.479  14.599   1.169 -0.0935  0.5223 -0.0638
    1W        W60218  10.257   2.835   2.401  0.0590  0.1132 -0.2496
    1W        W60219  26.595  20.505   6.090 -0.1504  0.1610 -0.4946
    1W        W60220  28.861   2.006   0.002 -0.0150 -0.2515 -0.0426
    1W        W60221  26.877   2.254   7.824  0.0691  0.2378  0.0901
    1W        W60222  19.262  11.867   8.989  0.1044 -0.3679  0.0771
    1W        W60223  21.661  19.308   7.757 -0.3010  0.2606 -0.1030
    1W        W60224  15.391   9.258   1.795  0.0757  0.0144 -0.0936
    1W        W60225   4.803  20.463   5.518  0.1836  0.1906 -0.0426
    1W        W60226  27.093   2.469   0.240 -0.1297  0.1566  0.0812
    1W        W60227  25.178   8.422   1.555 -0.1707 -0.1696  0.0143
    1W        W60228  19.538  27.758   0.477 -0.0464  0.0292 -0.3741
    1W        W60229  16.328  27.396   6.564 -0.2476  0.0574  0.2052
    1W        W60230  26.872  27.226   2.180  0.2458  0.2744 -0.2849
    1W        W60231  28.931  19.587   8.764 -0.0100  0.0757 -0.1697
    1W        W60232  28.384   2.781   9.180 -0.1154  0.3220 -0.0474
    1W        W60233  19.852   9.216   2.215 -0.2347 -0.1183  0.2930
    1W        W60234   5.111  23.348   6.299  0.1272 -0.2268 -0.3127
    1W        W60235  27.417  15.107   8.828 -0.0797  0.3567  0.0420
    1W        W60236   8.139   6.864   9.060  0.1265 -0.0518 -0.1795
    1W        W60237  26.586  27.865   7.002  0.0849 -0.0006  0.2505
    1W        W60238  27.633  22.888   1.971  0.1993  0.3195 -0.1593
    1W        W60239   0.389  29.103   8.146 -0.3883 -0.0172  0.2148
    1W        W60240  22.558  29.572   1.775  0.3922  0.4468 -0.1302
    1W        W60241   7.629   3.911   6.934  0.3463  0.4811  0.2637
    1W        W60242  19.506  14.287   8.212  0.0942  0.1205 -0.1229
    1W        W60243  25.339  12.412   7.382  0.0632 -0.0883  0.1570
    1W        W60244   4.473  10.302   7.387 -0.3390 -0.0757 -0.1636
    1W        W60245   1.586   7.092   1.107 -0.0763 -0.1111  0.0291
    1W        W60246  11.883  26.968   1.859 -0.0093  0.0340 -0.0056
    1W        W60247  28.496   7.889   6.751  0.3920  0.2299  0.4351
    1W        W60248  20.718  22.558   2.483 -0.1487 -0.1358  0.1357
    1W        W60249  13.053   4.392   9.216 -0.0679  0.1350 -0.1006
    1W        W60250  14.779  29.765   7.972  0.0965  0.0269 -0.2726
    1W        W60251  29.312   6.307   6.640  0.0151 -0.0173 -0.0651
    1W        W60252   9.947   8.498   7.947 -0.1055 -0.3890 -0.2603
    1W        W60253  16.367  23.569   9.340 -0.0089 -0.1178 -0.1267
    1W        W60254   6.010  11.430   0.933  0.1542  0.1684  0.0519
    1W        W60255  20.733  24.212   7.352  0.1445  0.2306  0.0684
    1W        W60256   3.374  22.067   4.854  0.0811  0.0847  0.2116
    1W        W60257  22.867  29.970   8.959  0.0637  0.1928  0.2156
    1W        W60258  12.115   0.946   2.583  0.4499  0.0364  0.3126
    1W        W60259  27.369  12.819   6.515  0.1143 -0.1067  0.0249
    1W        W60260  20.007  16.788   0.833  0.2466 -0.3358 -0.2294
    1W        W60261   1.316  14.362   7.305  0.3222 -0.0306  0.0324
    1W        W60262  12.753  30.121   2.168 -0.2691 -0.5067  0.0294
    1W        W60263  25.144  14.645   6.633  0.1620 -0.3380 -0.0388
    1W        W60264   8.221  10.943   0.227 -0.0090 -0.2323 -0.2166
    1W        W60265  22.537  27.916   6.793  0.2011  0.1861 -0.0065
    1W        W60266  28.709  27.367   1.325 -0.0209  0.2644 -0.2392
    1W        W60267  12.904  15.503   9.393 -0.1074 -0.0125  0.0768
    1W        W60268  17.911   9.447   8.689  0.2719  0.0176  0.1704
    1W        W60269  27.163  25.911   8.890 -0.1463  0.0469 -0.0617
    1W        W60270   0.105  26.813   2.645 -0.0541  0.0199  0.1208
    1W        W60271  12.223  16.002   1.708  0.0067  0.1046  0.0227
    1W        W60272  27.968  27.319   6.262 -0.0779 -0.0461  0.1066
    1W        W60273  15.030   4.067   9.350  0.0239 -0.0251  0.2268
    1W        W60274  26.791   8.427   1.032 -0.2072  0.2486 -0.1914
    1W        W60275  23.874  25.648   1.572  0.3380  0.0371  0.0522
    1W        W60276   7.854   3.161   0.190  0.2074  0.0976 -0.0325
    1W        W60277  26.456  13.194   9.096  0.3088 -0.0326  0.2093
    1W        W60278  26.076  17.814   0.855 -0.0311  0.1499  0.0585
    1W        W60279  21.311  26.353   7.078 -0.2264 -0.0422 -0.0646
    1W        W60280   7.849  26.640   9.176  0.1921 -0.2082 -0.2294
    1W        W60281   1.927  14.840   1.615  0.0038  0.1331 -0.1548
    1W        W60282  25.171  20.255   9.303  0.0334 -0.2801  0.0328
    1W        W60283  27.402   0.015   2.720  0.1818 -0.0755 -0.1098
    1W        W60284   8.602   6.806   9.279 -0.1931  0.1455 -0.4259
    1W        W60285  19.294  18.878   8.206  0.0403 -0.2240  0.1615
    1W        W60286   1.519  19.689   0.168  0.2941 -0.0444  0.2663
    1W        W60287   3.212  20.132   8.899  0.0073  0.0579 -0.0790
    1W        W60288  16.633   0.323   2.762  0.2234 -0.0758 -0.0391
    1W        W60289   2.543  26.900   1.810  0.1980 -0.4727  0.0105
    1W        W60290  27.906   8.169   2.449  0.0564 -0.0665 -0.4765
    1W        W60291  29.116  18.610   5.876  0.0424 -0.0717 -0.0633
    1W        W60292   7.782  28.231   8.642 -0.0549  0.0872 -0.3432
    1W        W60293   1.814  26.246   7.200 -0.0881 -0.0268  0.0270
    1W        W60294   7.524  15.932   1.104  0.2339 -0.2291 -0.1994
    1W        W60295  25.147  14.320   0.935 -0.1932  0.0914 -0.2356
    1W        W60296   0.832   9.617   6.553  0.2605  0.2222  0.1961
    1W        W60297  11.267  18.083   8.099 -0.0149 -0.2838 -0.0427
    1W        W60298  17.429  12.721   7.043 -0.1770 -0.0910  0.0260
    1W        W60299  25.521  20.184   1.248 -0.0725  0.1061 -0.2055
    1W        W60300  28.247  11.340   0.873 -0.4920 -0.0136  0.3486
    1W        W60301   5.740  13.325   3.430  0.1230 -0.0896 -0.0486
    1W        W60302   2.969   1.319   2.412 -0.1836 -0.0571  0.1381
    1W        W60303   2.138   5.964   0.635  0.1024  0.1024  0.0643
    1W        W60304   2.335  12.328   8.571  0.0354 -0.1169  0.0614
    1W        W60305  29.173   5.821   7.908 -0.0267 -0.1582  0.2606
    1W        W60306   5.678  14.602   2.483 -0.1222  0.1326  0.0191
    1W        W60307   8.512  18.824   0.686 -0.2282 -0.0252 -0.0230
    1W        W60308   1.771   0.756   0.142 -0.3763  0.0312 -0.1742
    1W        W60309  19.922   8.648   9.180 -0.1700  0.2734  0.0821
    1W        W60310   8.304   7.183   3.893 -0.2656  0.0916  0.1246
    1W        W60311   5.155   3.133   7.848  0.1783  0.0263  0.2754
    1W        W60312   0.604   7.714   7.256  0.3087 -0.0597  0.0775
    1W        W60313   4.458  25.156   1.060 -0.1951 -0.0063  0.0871
    1W        W60314   4.906  25.310   7.096 -0.1604 -0.1084  0.1789
    1W        W60315  15.208   7.049   1.105  0.1400 -0.0711 -0.0032
    1W        W60316  16.078  17.041   8.017 -0.1285  0.1600  0.2189
    1W        W60317  15.345  11.229   0.012 -0.2467  0.1419 -0.3685
    1W        W60318  28.799   6.320   1.830 -0.1537  0.3682 -0.1875
    1W        W60319  24.430  14.172   8.602 -0.2545  0.0158 -0.2625
    1W        W60320   7.984  24.764   8.855 -0.1894 -0.1711 -0.3095
    1W        W60321   3.506  24.641   0.042 -0.0353  0.0059 -0.0478
    1W        W60322   7.381   8.133   7.799 -0.0897 -0.0394  0.1078
    1W        W60323   5.162  14.301   8.625 -0.5545  0.3189  0.1209
    1W        W60324  27.685  11.646   5.617 -0.2396  0.2840 -0.2391
    1W        W60325   2.739  25.312   6.493  0.1570 -0.1841  0.1136
    1W        W60326   3.257   8.627   1.616 -0.0281 -0.0124 -0.1457
    1W        W60327  20.865  22.609   1.315 -0.0053 -0.0006 -0.0231
    1W        W60328   7.924   3.217   1.216 -0.1382 -0.2549 -0.3897
    1W        W60329  28.557   3.868   1.960 -0.2116  0.2137  0.0844
    1W        W60330  25.668   1.066   2.663  0.2879 -0.0050 -0.0242
    1W        W60331  28.641  20.038   9.122 -0.0221 -0.1156  0.0470
    1W        W60332  10.660  17.643   7.657 -0.2824 -0.0092  0.1047
    1W        W60333  24.667   9.680   2.707 -0.1151 -0.0813 -0.3227
    1W        W60334  28.085  18.308   8.932 -0.1778  0.0678 -0.1695
    1W        W60335   9.821  24.998   6.282  0.2237  0.0170  0.1330
    1W        W60336  12.887  10.326   1.919  0.3557  0.5231 -0.0798
    1W        W60337   1.079   2.808   2.818 -0.1007  0.0619  0.1757
    1W        W60338  27.018  22.435   0.598  0.1152 -0.0359 -0.0874
    1W        W60339   3.515  26.677   1.590 -0.0006 -0.0715 -0.1535
    1W        W60340   6.937  15.964   7.663  0.3294 -0.2201 -0.3487
    1W        W60341  17.481   5.125   3.692 -0.0544 -0.5094  0.0505
    1W        W60342  14.221  19.508   8.617 -0.0085  0.3684 -0.0631
    1W        W60343   7.061  26.284   0.078 -0.0588  0.4379 -0.0116
    1W        W60344  20.780   5.192   2.655 -0.1575  0.0101  0.1143
    1W        W60345   5.523  10.352   7.445  0.0382 -0.0875 -0.1976
    1W        W60346  28.528   1.912   0.698 -0.2408 -0.2427  0.0608
    1W        W60347  23.926  26.634   8.470  0.2134  0.2945 -0.0476
    1W        W60348   9.947  17.263   2.191 -0.0305 -0.0525  0.4655
    1W        W60349  12.565   3.280   3.960  0.1959  0.1071  0.4084
    1W        W60350  16.691  24.558   9.148 -0.3780 -0.1889 -0.0575
    1W        W60351   0.209  19.091   0.522 -0.2309  0.0846 -0.0295
    1W        W60352  12.389  23.801   7.801  0.1953 -0.1792 -0.1596
    1W        W60353  19.512  29.460   1.420  0.0499  0.0114 -0.1443
    1W        W60354  21.604  14.466   1.876 -0.0623  0.1220 -0.3531
    1W        W60355  30.093   2.653   2.007 -0.1601  0.0848  0.0291
    1W        W60356   4.100  20.477   1.501  0.1868 -0.1893 -0.0307
    1W        W60357  11.253  11.108   2.578 -0.2971  0.3487 -0.0247
    1W        W60358  21.324   5.996   2.786 -0.1946 -0.3562 -0.0086
    1W        W60359  10.283  29.097   8.042  0.5526  0.0439 -0.0174
    1W        W60360   5.521  10.793   7.147 -0.0007  0.5668  0.0239
    1W        W60361  17.723  27.726   3.277 -0.0325 -0.3597 -0.0124
    1W        W60362  15.389  28.184   1.017  0.0914  0.0942  0.1369
    1W        W60363  23.979  17.591   6.654  0.0858  0.0692 -0.0080
    1W        W60364   4.742   7.902   1.975  0.3232 -0.1494  0.0228
    1W        W60365   1.935  12.931   7.976 -0.1937  0.1250 -0.2245
    1W        W60366   7.433  21.565   1.751 -0.0994  0.1106  0.2871
    1W        W60367  19.402   7.953   7.404  0.2016  0.1590  0.3359
    1W        W60368  18.577  29.337   8.202 -0.1041  0.0293 -0.1265
    1W        W60369   3.159   5.870   6.646  0.0295  0.1554  0.0189
    1W        W60370  29.434  23.095   2.132 -0.0975 -0.0689 -0.0714
    1W        W60371  29.887  28.495   8.705  0.3215  0.0509 -0.1602
    1W        W60372  13.327  29.524   3.829 -0.0205  0.1789  0.0836
    1W        W60373  11.591  11.054   0.645 -0.0578  0.2324  0.0475
    1W        W60374   1.705  16.267   6.067 -0.1973 -0.1546 -0.2075
    1W        W60375  12.541  29.021   8.079 -0.2617  0.0983 -0.2655
    1W        W60376   4.945  23.814   8.180  0.2860  0.3345 -0.1266
    1W        W60377  19.964   7.149   1.297  0.1883 -0.1464  0.0040
    1W        W60378  21.137  23.196   9.079 -0.1972  0.2917  0.4359
    1W        W60379  11.546   2.269   1.113 -0.0112 -0.0749 -0.1310
    1W        W60380  28.416   1.531   7.347 -0.0770 -0.0075 -0.1425
    1W        W60381  16.922  28.895   0.407  0.1829  0.0870 -0.1511
    1W        W60382   6.572   1.193   7.942  0.1225  0.1616  0.0476
    1W        W60383  16.095  12.380   1.116 -0.0847 -0.1220  0.0892
    1W        W60384  20.258  14.779   7.579  0.1264 -0.0143  0.0878
    1W        W60385  28.361   9.715   5.491 -0.1100 -0.2521 -0.0544
    1W        W60386   9.517  25.385   6.034 -0.1202  0.0179 -0.1466
    1W        W60387  19.308  10.993   6.629  0.2668  0.2018 -0.1275
    1W        W60388  16.398  27.404   8.731  0.0512  0.1168 -0.1517
    1W        W60389  17.970  11.258   1.857 -0.0804  0.0281  0.1544
    1W        W60390  10.192  19.561   1.769 -0.0093  0.0125  0.0460
    1W        W60391   9.348  10.043   2.834  0.1307  0.0445 -0.2998
    1W        W60392   9.286  25.062   1.855 -0.1269 -0.0305  0.3506
    1W        W60393   5.169  23.360   8.041 -0.0716 -0.0159  0.1434
    1W        W60394  18.918  20.330   2.376 -0.1837 -0.0711 -0.0509
    1W        W60395  14.884  19.634   8.132  0.0103  0.1722  0.0748
    1W        W60396  18.502  26.634   3.233 -0.3827  0.2574  0.1437
    1W        W60397  27.948  14.590   5.573  0.1057  0.0465  0.0384
    1W        W60398  25.721   0.563   0.453  0.0829 -0.0042  0.1355
    1W        W60399  16.170  22.736   7.666  0.1582 -0.0867  0.0075
    1W        W60400   3.564   4.758   2.896  0.0804  0.1400 -0.2754
    1W        W60401   1.444  26.123   8.001  0.0582  0.0507  0.0953
    1W        W60402   5.887   2.031   2.400  0.3744 -0.2502 -0.1049
    1W        W60403  23.053   2.654   7.934  0.1610  0.2935 -0.0776
    1W        W60404   7.974  14.163   1.344 -0.2676  0.3610  0.0988
    1W        W60405  29.855  19.475   5.938 -0.0735 -0.1063 -0.0556
    1W        W60406  23.392  29.074   2.283  0.2517  0.2777 -0.1099
    1W        W60407  26.622   1.249   6.946  0.0439  0.1230 -0.1882
    1W        W60408   8.941  19.206   0.167 -0.0913  0.5163  0.1116
    1W        W60409  11.365   8.280   2.816  0.0460  0.0737  0.0741
    1W        W60410  23.007  27.739   7.030  0.2859  0.1586 -0.1748
    1W        W60411  18.245   6.981   0.145 -0.1024 -0.2494  0.0755
    1W        W60412  23.863  27.276   8.662 -0.0056  0.2404 -0.2332
    1W        W60413   6.247   1.724   2.512  0.1685 -0.0523 -0.1640
    1W        W60414  10.733  15.331   2.551 -0.1448  0.0582 -0.1363
    1W        W60415  11.034  11.072   3.098  0.1378  0.2400 -0.2590
    1W        W60416   8.107  18.740   7.809 -0.0649  0.0795 -0.0279
    1W        W60417  13.916  18.152   6.958 -0.0709 -0.0964  0.0805
    1W        W60418  24.408   2.921   1.377 -0.4444  0.1010 -0.0484
    1W        W60419   4.634  10.958   0.849  0.4043  0.4116 -0.1832
    1W        W60420  30.145  29.251   2.136  0.1450 -0.3240 -0.0581
    1W        W60421  20.116   2.374   3.271 -0.1715  0.0423 -0.1121
    1W        W60422  12.041  18.345   8.233  0.1648 -0.1575 -0.0033
    1W        W60423   2.970   3.136   8.897  0.1903 -0.1406 -0.1222
    1W        W60424  21.073   6.535   8.729 -0.1643  0.0644  0.0093
    1W        W60425   3.608  11.195   0.467 -0.2820 -0.0457 -0.1488
    1W        W60426  29.545  24.887   5.563  0.2308 -0.0912  0.1259
    1W        W60427   4.695   5.259   6.952 -0.0424 -0.0777 -0.2837
    1W        W60428   5.499  18.803   7.945 -0.1714  0.0605 -0.3413
    1W        W60429  10.607  17.012   7.613 -0.1741 -0.0403 -0.0174
    1W        W60430  10.623  20.191   1.273 -0.1854 -0.1779 -0.1420
    1W        W60431   8.839  12.516   1.527  0.0119 -0.0431  0.0271
    1W        W60432  23.583   0.996   2.663 -0.2511  0.2687 -0.0618
    1W        W60433   6.904   8.539   8.877  0.0490  0.1294 -0.0364
    1W        W60434   6.487  15.048   1.078 -0.0383 -0.1887  0.1854
    1W        W60435  20.844  16.414   7.922  0.3140 -0.0977  0.1101
    1W        W60436  18.203  29.610   0.257  0.1078 -0.0472 -0.2611
    1W        W60437  16.201   6.308   2.187 -0.0795 -0.0239 -0.0994
    1W        W60438  25.233  17.420   8.586  0.0095 -0.2544 -0.1136
    1W        W60439  13.757  10.609   8.730  0.0287  0.1222 -0.0468
    1W        W60440   6.422  27.651   1.264 -0.1769 -0.2172 -0.1922
    1W        W60441  10.575  15.214   8.630 -0.3746  0.1175  0.1935
    1W        W60442   6.001  15.505   6.406 -0.1873 -0.1873 -0.2994
    1W        W60443  21.071   3.826   9.002  0.2390 -0.0123  0.0968
    1W        W60444  29.848   1.833   7.998  0.0429 -0.1052 -0.3374
    1W        W60445  24.469  15.590   6.261  0.3552 -0.0165  0.1249
    1W        W60446   0.601  27.797   2.481 -0.3954 -0.2435  0.1970
    1W        W60447  21.738  16.996   1.783  0.0028  0.1056  0.2351
    1W        W60448  17.263  24.646   1.434 -0.1482 -0.2267 -0.0020
    1W        W60449  24.744   7.461   1.909 -0.2819  0.2319 -0.0070
    1W        W60450  15.798  24.319   9.052  0.0374  0.2554 -0.0984
    1W        W60451   2.753  23.128   9.160 -0.0061  0.3277  0.0640
    1W        W60452  26.149   3.623   0.942  0.1029  0.0971  0.2235
    1W        W60453  27.115  18.197   1.548 -0.0171 -0.2827  0.1634
    1W        W60454  22.165  10.870   7.613 -0.0110 -0.2066 -0.1087
    1W        W60455   2.669  21.166   0.750  0.1540  0.0391 -0.0945
    1W        W60456  11.966   5.960   8.285  0.1288  0.1453 -0.2319
    1W        W60457  26.369  14.048   8.208 -0.2238  0.1421 -0.2601
    1W        W60458  16.650  13.470   6.956 -0.1661 -0.0156  0.0221
    1W        W60459  20.536   0.751   6.949  0.1642  0.1131 -0.2141
    1W        W60460  15.533   9.255   2.386 -0.1014  0.0402  0.2073
    1W        W60461   6.915  13.872   7.082  0.1463 -0.0059  0.0969
    1W        W60462  14.352  21.280   7.762 -0.0365 -0.1369 -0.0460
    1W        W60463  28.692  10.136   7.908 -0.2406 -0.2485  0.0082
    1W        W60464  28.730   4.378   1.948  0.3019 -0.0442 -0.0129
    1W        W60465  26.741  29.044   7.823 -0.1842  0.4527  0.0315
    1W        W60466  10.346  10.683   1.175 -0.1204  0.1228  0.0872
    1W        W60467  23.781  28.837   0.504 -0.0706  0.2782 -0.1606
    1W        W60468  14.197  27.172   0.164  0.2731  0.0734  0.2438
    1W        W60469   4.842  11.812   6.720  0.2165 -0.0027  0.1714
    1W        W60470   9.690  25.160   0.275  0.2188  0.0910 -0.0078
    1W        W60471  15.335  11.146   7.275 -0.1204  0.0138  0.2024
    1W        W60472   6.028  10.183   2.158 -0.2073  0.1926  0.0521
    1W        W60473  10.580  23.394   9.212 -0.3575  0.0357 -0.2213
    1W        W60474  21.785  25.638   8.761  0.0023  0.1020  0.1686
    1W        W60475   4.978  14.722   8.963 -0.2248  0.4139 -0.0797
    1W        W60476   3.509  21.566   5.702  0.1292 -0.3099 -0.1461
    1W        W60477  26.580  20.100   6.901  0.3286  0.1754  0.0765
    1W        W60478  19.260  22.238   8.340  0.0925  0.2627  0.1079
    1W        W60479  14.234   3.719   6.883  0.0999  0.1404 -0.0401
    1W        W60480  12.564  28.674   7.553 -0.0434 -0.0478  0.0681
    1W        W60481  25.464  22.598   9.390  0.0160  0.4457 -0.0024
    1W        W60482  25.512   9.786   0.988 -0.0618  0.1658 -0.1238
    1W        W60483  16.686  25.666   6.899  0.2234 -0.2135  0.3649
    1W        W60484   4.347  23.807   6.877 -0.2908 -0.1986 -0.2771
    1W        W60485  24.015   1.833   9.243  0.1192 -0.1090  0.0326
    1W        W60486  29.406   6.365   0.686  0.4228 -0.3510  0.2580
    1W        W60487   5.238   5.968   7.939  0.1392 -0.0960 -0.0769
    1W        W60488  13.661   8.002   8.995 -0.2987  0.0989  0.1725
    1W        W60489   4.822  12.219   9.142 -0.0438  0.0451  0.0822
    1W        W60490  13.087  21.069   8.655  0.0219 -0.0199 -0.0067
    1W        W60491   1.286  13.764   0.035  0.1045  0.2544 -0.2014
    1W        W60492   1.853  19.765   7.349  0.2445  0.1258 -0.3128
    1W        W60493  22.230  27.468   1.406  0.0603  0.2427  0.3042
    1W        W60494  23.647  24.159   6.848 -0.0570  0.0655 -0.1707
    1W        W60495  17.735   7.932   2.318  0.1253  0.0153  0.0594
    1W        W60496  26.643   5.127   9.009 -0.2140  0.0729 -0.1223
    1W        W60497   9.640  13.006   8.849  0.0897  0.1034 -0.0526
    1W        W60498   4.555   5.676   1.393  0.0385  0.1846  0.0513
    1W        W60499  20.314  27.551   1.080  0.1392  0.1355 -0.3657
    1W        W60500   0.784   4.627   1.473 -0.5042  0.1985 -0.1334
    1W        W60501   8.424   2.490   8.633  0.0809  0.0511  0.2549
    1W        W60502  10.315  23.845   1.214 -0.0454  0.0639 -0.0166
    1W        W60503  20.774   0.974   9.008 -0.2025  0.0098 -0.2292
    1W        W60504  23.223  28.132   1.581  0.4277 -0.2560 -0.0538
    1W        W60505  16.897  12.132   8.870 -0.1179 -0.2439 -0.0765
    1W        W60506   0.726  26.249   0.300 -0.0340  0.0262 -0.0123
    1W        W60507  28.847  14.049   8.993 -0.1653 -0.4144 -0.3489
    1W        W60508  24.459  22.360   0.784 -0.0207 -0.2191  0.4420
    1W        W60509  10.933   9.564   0.885  0.0633 -0.2488 -0.0879
    1W        W60510   7.214   0.024   9.377 -0.2058  0.0715 -0.1504
    1W        W60511  28.212   6.571   0.371  0.0769  0.1401 -0.1188
    1W        W60512  29.240  15.345   6.545  0.0466  0.1859 -0.2459
    1W        W60513   9.139  19.665   1.473  0.1079 -0.2958  0.2033
    1W        W60514  28.512  29.461   0.029  0.3418 -0.0989  0.1161
    1W        W60515  14.626  23.546   8.619  0.0970 -0.1546  0.3591
    1W        W60516   2.779  15.361   7.836  0.2681 -0.0312  0.2387
    1W        W60517  24.434  16.316   6.051 -0.0218 -0.1423 -0.1011
    1W        W60518   5.381  16.565   9.214 -0.0305  0.0316 -0.1691
    1W        W60519   6.960  24.420   5.591 -0.1163  0.1409 -0.0756
    1W        W60520  17.638   7.713   3.337  0.2009 -0.1289  0.2690
    1W        W60521   4.078   0.024   0.747 -0.1544  0.1487  0.2032
    1W        W60522   5.981  27.017   7.748  0.0409  0.2597  0.2351
    1W        W60523  19.364  15.483   8.405 -0.1482 -0.1565 -0.0999
    1W        W60524  14.405   1.440   8.718  0.1884 -0.0206 -0.1332
    1W        W60525   2.493  12.596   6.053 -0.3210  0.0748 -0.3403
    1W        W60526   9.385   1.057   8.805 -0.2127  0.0724 -0.4910
    1W        W60527  25.221  28.356   2.774 -0.0249 -0.5045 -0.1552
    1W        W60528  19.398   4.482   0.925  0.0930 -0.1353  0.0119
    1W        W60529  20.517  19.593   8.666 -0.2758 -0.0184 -0.0861
    1W        W60530   4.248  28.919   9.118 -0.0176 -0.2773  0.0764
    1W        W60531  21.234   5.133   3.381 -0.1092 -0.1007  0.0588
    1W        W60532  25.141  27.247   8.217  0.0985  0.0375  0.0097
    1W        W60533  10.334   3.531   8.279  0.0613  0.1764  0.0600
    1W        W60534  22.903  10.123   6.884  0.1858  0.1410 -0.1395
    1W        W60535   6.268   0.271   2.552 -0.3042  0.3165  0.0121
    1W        W60536   6.158   6.173   2.543  0.2055  0.1616 -0.0141
    1W        W60537   0.617   0.588   2.352 -0.3414 -0.2212 -0.1948
    1W        W60538  18.469  26.665   2.579 -0.1635  0.0577 -0.2867
    1W        W60539  22.377  11.894   0.521  0.0099  0.0834 -0.0102
    1W        W60540   4.964  13.476   8.548  0.2167 -0.3470  0.0186
    1W        W60541  21.487   1.901   2.533  0.2878 -0.1334  0.0835
    1W        W60542  29.397  17.568   7.678 -0.1146 -0.0810  0.0596
    1W        W60543  30.017  15.592   0.912 -0.2417 -0.1011 -0.0142
    1W        W60544   6.914  14.726   9.300  0.0145 -0.0606 -0.2534
    1W        W60545   7.767  10.764   0.723 -0.0127 -0.1264 -0.5216
    1W        W60546  17.568  18.600   7.427  0.4720  0.1812 -0.0555
    1W        W60547   2.761  21.859   8.376 -0.0139 -0.0915 -0.0367
    1W        W60548   0.581   2.151   7.598  0.5670 -0.2419  0.2566
    1W        W60549  28.429  22.866   0.619  0.0407  0.2673  0.2389
    1W        W60550  19.964   9.505   7.439 -0.0879 -0.1062 -0.3542
    1W        W60551   9.737  11.877   0.115 -0.0302  0.0672 -0.1895
    1W        W60552   7.589   2.359   7.851  0.0338 -0.1310  0.2833
    1W        W60553  25.521  20.084   8.496 -0.5116  0.2308  0.0144
    1W        W60554  11.172  18.650   9.057  0.0547 -0.0611  0.0438
    1W        W60555  21.148  24.801   0.459  0.1967 -0.1245 -0.1438
    1W        W60556  28.004  22.010   0.250  0.0376 -0.1573 -0.4098
    1W        W60557   3.483  15.336   1.956  0.0187 -0.1590 -0.1056
    1W        W60558   1.060  13.372   8.197 -0.1654 -0.1020  0.1519
    1W        W60559  21.950  29.488   6.737  0.1305  0.0188 -0.4948
    1W        W60560  26.750   6.710   2.506 -0.3435 -0.3260  0.0434
    1W        W60561  26.845  10.125   8.662 -0.0403 -0.0174 -0.0334
    1W        W60562  10.965   7.574   9.342  0.2442 -0.2060 -0.1697
    1W        W60563  14.239  26.557   7.252 -0.1314  0.4776  0.0288
    1W        W60564   2.580   8.254   8.627 -0.1340 -0.3755 -0.2020
    1W        W60565   1.895  29.722   6.553  0.1827  0.1306  0.2345
    1W        W60566  21.152  27.043   6.966  0.0224  0.2495  0.0121
    1W        W60567  13.314   0.048   1.171 -0.0537 -0.0264  0.0244
    1W        W60568   1.705   0.877   7.230 -0.0221  0.3298 -0.0707
    1W        W60569  13.299  17.574   7.274 -0.2915  0.0544  0.0049
    1W        W60570   5.854  11.191   8.602 -0.1516  0.0847 -0.0005
    1W        W60571   8.371   7.534   3.141  0.2583  0.0439 -0.1210
    1W        W60572   6.812  17.842   1.185 -0.0088  0.0667 -0.0180
    1W        W60573  12.451  15.822   8.514 -0.0728  0.0460  0.1611
    1W        W60574   2.868  28.692   1.915  0.2298 -0.1779 -0.1658
    1W        W60575  10.463  15.151   7.092  0.1610  0.0889  0.2501
    1W        W60576   0.100  11.544   8.730 -0.3910 -0.1408 -0.0489
    1W        W60577  25.406   3.593   1.570  0.0931  0.0282  0.1325
    1W        W60578   4.923   4.035   1.231 -0.0310  0.0422  0.2232
    1W        W60579  22.412  28.445   8.842 -0.0490 -0.2873  0.0253
    1W        W60580  15.203   8.021   2.882 -0.1946 -0.0153 -0.0580
    1W        W60581   9.477   9.156   0.654 -0.1736  0.0856 -0.1871
    1W        W60582  23.175  23.333   1.741 -0.0721  0.0622  0.1070
    1W        W60583  13.357  17.720   1.069  0.1097 -0.1129 -0.0629
    1W        W60584  28.543  12.028   1.494  0.1048  0.0510  0.2557
    1W        W60585  19.551  14.898   0.838 -0.0909  0.0632  0.0614
    1W        W60586  14.678  27.894   0.126 -0.4035 -0.1878  0.0438
    1W        W60587  14.323  25.792   8.846  0.2974 -0.1765  0.0279
    1W        W60588  26.608   3.481   7.203 -0.1101 -0.0946 -0.1163
    1W        W60589   3.991  24.868   0.141 -0.1839  0.0879  0.2349
    1W        W60590  10.325  26.494   1.616 -0.0707 -0.2636 -0.0545
    1W        W60591  26.123  21.883   7.877  0.0041  0.0179  0.3432
    1W        W60592  22.864   4.189   1.248 -0.0360  0.0965 -0.2777
    1W        W60593   8.119  10.614   2.114 -0.1367  0.5772  0.2524
    1W        W60594  21.881  19.523   6.324 -0.2319 -0.0960 -0.0674
    1W        W60595  22.167  20.199   1.503  0.3935 -0.1808  0.0549
    1W        W60596  17.227  21.291   0.331 -0.2855  0.0119  0.1879
    1W        W60597  23.588  22.867   2.271 -0.2031  0.2595 -0.0070
    1W        W60598  18.073  27.056   6.628  0.0234 -0.0401  0.1454
    1W        W60599  25.779  14.059   6.537  0.1349  0.0836  0.1267
    1W        W60600   2.218  13.869   9.200 -0.2231 -0.1972 -0.1956
    1W        W60601  18.817  26.290   0.744  0.1725 -0.0674 -0.0247
    1W        W60602  14.008  15.037   7.395  0.1535 -0.0969  0.0350
    1W        W60603   4.969  12.129   7.088  0.2613  0.2944 -0.0541
    1W        W60604  24.626  14.732   6.905 -0.0078 -0.1486  0.2596
    1W        W60605  23.754  22.527   1.881  0.1272  0.1238 -0.1333
    1W        W60606   3.105   3.990   8.127 -0.0227  0.1557  0.0667
    1W        W60607   4.549  26.170   6.914  0.0316  0.0618 -0.1618
    1W        W60608  26.176  19.662   8.713  0.2674  0.2016  0.1158
    1W        W60609   9.765   6.847   2.107 -0.0671 -0.0136 -0.1529
    1W        W60610  28.602  14.445   7.618  0.1125 -0.1543  0.1292
    1W        W60611   5.549  16.673   6.783  0.0503 -0.2138  0.1924
    1W        W60612  18.310   0.958   7.075  0.0948 -0.0369 -0.0476
    1W        W60613   6.270  14.470   1.077  0.0820  0.2611 -0.2397
    1W        W60614  13.752  15.538   0.621  0.1963  0.2860 -0.0207
    1W        W60615   2.548  23.899   7.983 -0.2684 -0.3890  0.0912
    1W        W60616  17.907  22.413   7.681 -0.1757  0.3440 -0.2433
    1W        W60617   1.233  27.594   1.883  0.0382  0.1789  0.2515
    1W        W60618  22.074   5.782   0.766  0.0452 -0.3757  0.0673
    1W        W60619  14.278   8.651   8.832 -0.0045  0.1998 -0.1295
    1W        W60620   1.496   5.693   8.680 -0.2267 -0.0252 -0.1446
    1W        W60621  16.779  28.248   8.843 -0.0745 -0.3973 -0.0107
    1W        W60622   8.609  17.280   7.548  0.0465 -0.3360 -0.2051
    1W        W60623  17.969   3.942   2.186 -0.2970 -0.0044 -0.0182
    1W        W60624  15.592   0.143   0.056 -0.0015  0.3999  0.4159
    1W        W60625   5.868   7.214   8.247 -0.0095 -0.1483 -0.2983
    1W        W60626  13.877   3.362   7.942  0.3202  0.0120 -0.1949
    1W        W60627  22.848  22.635   8.150  0.3989  0.1248 -0.0705
    1W        W60628   4.956  12.721   9.006  0.3783 -0.0961 -0.1657
    1W        W60629   3.402  12.639   7.214 -0.4060 -0.1634 -0.0175
    1W        W60630  16.303   5.344   8.811  0.2913  0.0324 -0.1824
    1W        W60631   0.177   0.241   1.708 -0.1285  0.0380 -0.0074
    1W        W60632  24.438  23.226   6.578  0.3733  0.5073  0.3053
    1W        W60633  21.591  25.896   7.515 -0.0530 -0.2178 -0.0472
    1W        W60634   7.997   3.786   7.900 -0.0293  0.1319  0.1200
    1W        W60635  14.778   1.098   0.093  0.0058  0.0176  0.0999
    1W        W60636  23.003  17.365   1.706  0.1577  0.2249 -0.1535
    1W        W60637   9.147  26.959   2.121 -0.3607 -0.3320  0.0053
    1W        W60638  12.515  18.225   8.167 -0.1249  0.1327  0.1710
    1W        W60639   6.537  26.198   6.384  0.2016 -0.1491  0.0021
    1W        W60640  12.930  26.879   8.047 -0.2302 -0.1009  0.0061
    1W        W60641  18.565  21.186   6.510  0.1694 -0.2487 -0.0466
    1W        W60642  27.112  15.229   0.978  0.1654  0.0799 -0.0554
    1W        W60643   3.007   2.271   8.310  0.1140 -0.0140  0.0888
    1W        W60644   3.591  17.368   6.871  0.1873 -0.0553 -0.4296
    1W        W60645   4.568   9.719   2.704  0.3610 -0.0956  0.4339
    1W        W60646   4.775   7.643   8.303  0.0259 -0.3523 -0.1696
    1W        W60647  21.448  20.780   8.960 -0.0750 -0.0837 -0.0630
    1W        W60648   1.250  14.668   7.653  0.0404  0.0023 -0.1648
    1W        W60649  10.576  13.381   9.005  0.1135  0.0969  0.3708
    1W        W60650  27.474   1.143   8.381  0.2638 -0.0714 -0.0447
    1W        W60651  11.576  25.936   2.456  0.0877 -0.2594 -0.3392
    1W        W60652   0.671  15.705   7.256  0.0002  0.3007  0.2259
    1W        W60653   9.549   7.905   7.224 -0.0588  0.1340  0.0269
    1W        W60654  14.812   1.708   1.315  0.1533 -0.1336 -0.2191
    1W        W60655   2.055   8.516   0.491  0.3599 -0.0974 -0.0793
    1W        W60656   3.851  17.450   0.737  0.2271 -0.1297 -0.1161
    1W        W60657  26.073  16.072   5.563 -0.1277  0.0392  0.0903
    1W        W60658  16.131  26.491   1.697 -0.0057 -0.0893 -0.0390
    1W        W60659   9.251  24.020   2.037 -0.1279 -0.1087  0.2417
    1W        W60660   9.122   4.259   3.215 -0.1970  0.1188 -0.3063
    1W        W60661   1.504  16.223   0.334  0.3175  0.0190 -0.0254
    1W        W60662  26.006  11.327   1.695 -0.0859 -0.2878 -0.4138
    1W        W60663  12.218   7.718   0.297 -0.0114 -0.3430 -0.2594
    1W        W60664  18.322  16.200   0.595 -0.1781  0.1066 -0.0102
    1W        W60665   5.842  10.138   9.147  0.3209  0.2815 -0.1114
    1W        W60666   1.053  25.644   6.710  0.1006 -0.0834  0.0394
    1W        W60667  13.666  26.094   2.877  0.1245 -0.1972  0.0669
    1W        W60668  23.903   2.590   7.872  0.1154  0.1563 -0.1281
    1W        W60669  26.284  18.366   5.202  0.4322 -0.3032  0.2271
    1W        W60670  17.283  17.728   8.635  0.1955  0.0761  0.0436
    1W        W60671   9.766   0.685   8.488  0.0760 -0.1366  0.2030
    1W        W60672  18.577   9.036   1.139 -0.0740 -0.1713 -0.1233
    1W        W60673   5.205  11.888   9.248  0.1353 -0.1864 -0.1786
    1W        W60674   0.087  20.598   0.473  0.1010 -0.1878  0.0350
    1W        W60675   9.789   8.077   0.119 -0.0964 -0.1846 -0.1981
    1W        W60676  22.828  13.514   0.717  0.0157  0.0329 -0.0275
    1W        W60677  16.296  30.096   0.916 -0.3016  0.0911  0.0386
    1W        W60678  27.695  27.949   7.565 -0.1971 -0.1323  0.4063
    1W        W60679   8.513  29.521   7.255  0.0394 -0.3990  0.0116
    1W        W60680   3.585   4.573   8.936 -0.2162  0.2136  0.0599
    1W        W60681  13.218  14.851   1.959  0.0745  0.2007  0.1067
    1W        W60682   4.914  15.861   0.278 -0.0311 -0.0015 -0.3232
    1W        W60683  13.709   6.652   1.383  0.3418 -0.4186  0.0699
    1W        W60684  14.868   3.326   9.074 -0.0560  0.2623 -0.3472
    1W        W60685  11.187   5.775   8.790 -0.0635  0.0563 -0.1342
    1W        W60686  21.513  21.139   8.566  0.0440 -0.2192  0.1068
    1W        W60687  20.875  16.687   0.986  0.3491 -0.0234 -0.3767
    1W        W60688  12.635  14.970   7.655  0.0486 -0.0403 -0.2675
    1W        W60689  15.929  22.245   7.816  0.0056  0.0896 -0.2835
    1W        W60690  16.470  26.557   1.163 -0.1584  0.2297 -0.2465
    1W        W60691  29.722   6.851   7.743 -0.0133  0.2439 -0.0402
    1W        W60692  11.234  24.917   1.658 -0.0462  0.2534  0.0855
    1W        W60693  27.742   3.273   1.104 -0.1166 -0.3581 -0.0820
    1W        W60694  11.566   5.224   7.822  0.0341  0.1982  0.0107
    1W        W60695  20.044   0.559   7.694  0.2951 -0.2573  0.0075
    1W        W60696   2.432  15.706   8.093 -0.3329 -0.1362  0.1269
    1W        W60697   1.574   8.850   2.012  0.0241  0.0056 -0.3983
    1W        W60698  14.769   9.004   8.797 -0.0688  0.1524 -0.0295
    1W        W60699   9.592   0.328   0.331  0.0895 -0.1397  0.1944
    1W        W60700   3.064  22.684   9.186  0.3495  0.1152 -0.1224
    1W        W60701  16.843  21.409   7.289  0.1991 -0.0477  0.0200
    1W        W60702  12.425  21.705   1.661 -0.1120 -0.0718  0.0504
    1W        W60703  14.149   6.999   2.237  0.1016  0.0801 -0.5737
    1W        W60704   0.357  23.991   6.538 -0.1768 -0.2219  0.1270
    1W        W60705  20.518  25.755   8.612  0.2301  0.5143  0.3958
    1W        W60706  24.341   5.629   9.243 -0.1660 -0.2853  0.2111
    1W        W60707   5.960  24.662   8.988  0.0935 -0.3386  0.3810
    1W        W60708  10.287  13.904   0.421 -0.1621  0.1774 -0.0534
    1W        W60709  19.952  20.827   1.028  0.0141 -0.0236 -0.4524
    1W        W60710  14.578  22.796   8.281 -0.0440  0.2019 -0.1674
    1W        W60711  10.484   9.632   1.155  0.2832 -0.1074  0.1617
    1W        W60712   2.153   2.182   3.243 -0.1099  0.0989 -0.2185
    1W        W60713  15.059  14.419   8.762 -0.0030  0.0702 -0.0278
    1W        W60714   6.549   3.670   7.227  0.0428  0.0411  0.3148
    1W        W60715  11.445  21.969   0.265  0.0051 -0.2490  0.1259
    1W        W60716   5.951   5.962   2.150 -0.3408 -0.0433  0.2106
    1W        W60717  26.865  29.064   3.377  0.0114  0.0750  0.0238
    1W        W60718   3.402  26.772   0.710  0.2555  0.0209 -0.1538
    1W        W60719   3.585  14.877   8.135  0.0006  0.0399  0.4098
    1W        W60720  11.382  24.363   7.781  0.0524  0.0405  0.0100
    1W        W60721  19.082  16.750   6.925  0.0225  0.0112 -0.1206
    1W        W60722  13.343   8.413   3.277  0.0812 -0.2425  0.2139
    1W        W60723  15.174  29.280   2.367  0.1902 -0.1998  0.1600
    1W        W60724   2.433  18.316   7.470  0.0513 -0.3401 -0.1992
    1W        W60725  19.218  11.907   8.071  0.2018  0.1292  0.1510
    1W        W60726   6.951   2.012   0.089  0.0044  0.5362 -0.0229
    1W        W60727  27.204  29.291   7.982  0.1195  0.3499 -0.2610
    1W        W60728   4.999  23.281   5.810  0.1806 -0.3777 -0.0932
    1W        W60729  26.145   2.734   2.900 -0.5060  0.0573  0.1715
    1W        W60730   6.406   4.140   0.799  0.1612 -0.1687  0.1112
    1W        W60731   3.294   1.771   0.800 -0.2918  0.2254  0.1858
    1W        W60732  14.418  18.835   8.948  0.0130  0.1547  0.1754
    1W        W60733  25.171   5.264   0.927 -0.0849  0.0152 -0.1716
    1W        W60734  17.612  26.005   1.882  0.2272 -0.0702  0.2533
    1W        W60735  11.275  11.615   9.319 -0.0235 -0.0191 -0.2314
    1W        W60736  27.673   5.713   6.734 -0.1898  0.2656 -0.1884
    1W        W60737  26.638  14.376   1.679  0.0138  0.0574 -0.1962
    1W        W60738   9.498  24.225   8.031 -0.2388  0.0266  0.1672
    1W        W60739  21.113   8.025   9.047 -0.2678 -0.0833  0.1012
    1W        W60740  20.249   8.630   1.785 -0.0581 -0.1094 -0.0384
    1W        W60741  21.071  29.921   2.246  0.3194  0.2119  0.1634
    1W        W60742  27.711   5.658   0.203 -0.2441 -0.2282 -0.0633
    1W        W60743  28.554  20.179   6.146 -0.2806  0.0564 -0.1553
    1W        W60744  24.982  28.296   0.046 -0.1419  0.1961 -0.1126
    1W        W60745   0.908  12.119   7.850  0.1234 -0.0930  0.2247
    1W        W60746   0.486  13.401   7.522  0.0675 -0.1122 -0.0054
    1W        W60747  28.555  27.267   2.628  0.2153  0.0759  0.1853
    1W        W60748  19.937  13.785   0.405 -0.0794  0.2136  0.0990
    1W        W60749   3.404   2.239   7.115 -0.0927  0.1377  0.1008
    1W        W60750  26.531   6.348   0.747 -0.1404  0.0625 -0.0717
    1W        W60751  15.358   2.300   8.214 -0.1297  0.3281  0.2397
    1W        W60752  13.751  23.017   9.081 -0.3231 -0.4198 -0.0119
    1W        W60753  29.638  11.506   7.213 -0.0428  0.0895  0.1760
    1W        W60754  17.139  21.197   1.285 -0.1748 -0.3191 -0.1690
    1W        W60755  12.551  17.822   7.804  0.1586  0.0981 -0.0024
    1W        W60756   2.825   7.365   1.789  0.0714 -0.0318  0.0789
    1W        W60757  16.155  27.630   8.038  0.3342 -0.0471  0.0133
    1W        W60758   8.027   7.556   8.491  0.1267 -0.0394  0.2861
    1W        W60759  27.540   8.050   6.314 -0.2346  0.0973  0.0729
    1W        W60760  22.423   6.127   0.642  0.1531  0.1939 -0.3897
    1W        W60761  28.676  20.102   1.789 -0.1179 -0.0580 -0.4210
    1W        W60762  29.553  10.659   5.683  0.0030  0.0361  0.1988
    1W        W60763  26.034   4.841   7.314 -0.4410  0.1454 -0.0387
    1W        W60764  17.439  24.192   3.493 -0.2383  0.0499 -0.0035
    1W        W60765  20.931   1.033   0.261  0.1454 -0.1605 -0.3001
    1W        W60766  29.481  22.409   0.017 -0.0966  0.0853  0.0967
    1W        W60767   7.690   9.788   2.944  0.1545  0.1813  0.1057
    1W        W60768  11.978   1.359   7.915 -0.0047  0.1600  0.0565
    1W        W60769  11.236  18.915   0.476  0.1301 -0.0924 -0.0224
    1W        W60770  17.469   1.150   9.235 -0.2013  0.0359 -0.1422
    1W        W60771   6.634   5.738   8.949 -0.1337  0.1755 -0.2971
    1W        W60772   4.169  25.987   8.570  0.0893 -0.0995 -0.2068
    1W        W60773  18.387  26.213   1.302 -0.0609  0.1413 -0.1886
    1W        W60774   8.850  18.514   1.610 -0.0335 -0.0008 -0.0323
    1W        W60775  13.331   1.151   8.118  0.0335 -0.0389  0.2739
    1W        W60776  10.106  16.385   2.885  0.1283  0.0913  0.1670
    1W        W60777   6.615  21.825   5.727  0.0452 -0.0208 -0.0235
    1W        W60778  13.005  23.103   8.531 -0.0846 -0.0631  0.2256
    1W        W60779   6.562   6.333   7.071 -0.2775  0.1292  0.0086
    1W        W60780   1.356  24.938   6.190  0.1488  0.0747 -0.2285
    1W        W60781  17.905  25.968   6.513  0.0312  0.0829 -0.0641
    1W        W60782   4.152  27.282   1.145 -0.1741 -0.1880  0.0763
    1W        W60783  15.405   2.500   0.825  0.0483 -0.1506  0.0850
    1W        W60784  25.648  17.447   0.273  0.0189  0.0131  0.1307
    1W        W60785  19.031  11.090   9.286 -0.0337 -0.2138  0.2608
    1W        W60786  15.968   2.042   0.776  0.1307  0.0122 -0.2313
    1W        W60787  13.981   9.130   0.899  0.1073 -0.1966  0.1126
    1W        W60788   9.585  17.567   6.864 -0.1622  0.0701 -0.0648
    1W        W60789  19.125  11.792   7.586  0.4283  0.0930 -0.1032
    1W        W60790   3.695  26.756   7.541  0.0093 -0.0973  0.0954
    1W        W60791   2.336  13.778   7.952  0.1883 -0.1238  0.1778
    1W        W60792  21.530  14.940   2.046  0.3764 -0.2006  0.0318
    1W        W60793  20.139  20.111   1.660 -0.0087  0.2691 -0.0079
    1W        W60794   4.514  16.104   9.297  0.4510 -0.1991  0.0453
    1W        W60795  25.773   5.337   0.780  0.0320 -0.1510  0.3132
    1W        W60796  13.100  21.457   1.444 -0.0572 -0.0912 -0.0732
    1W        W60797  28.736  25.816   5.848 -0.1593 -0.0251 -0.1863
    1W        W60798  28.819  24.459   7.177 -0.0538 -0.1359  0.0720
    1W        W60799   4.688  29.770   8.657  0.1487  0.1617 -0.1525
    1W        W60800  15.187   9.938   2.572 -0.0435 -0.0094 -0.0207
    1W        W60801  18.476  25.874   2.368 -0.0886  0.2819 -0.0084
    1W        W60802  11.511  19.953   2.333  0.2468  0.3238  0.2625
    1W        W60803  11.232   6.407   8.587  0.1051 -0.1066  0.0456
    1W        W60804   3.965  18.412   0.888  0.0627 -0.2191 -0.1190
    1W        W60805  13.510   4.157   9.216  0.0550 -0.0910  0.1017
    1W        W60806  26.526   8.022   8.145  0.2119  0.1688 -0.1719
    1W        W60807  20.116  17.602   7.577 -0.2175 -0.0931 -0.1573
    1W        W60808  30.138  18.529   1.518  0.0226  0.0261 -0.0149
    1W        W60809  11.750   7.298   1.673  0.3607 -0.0614  0.1062
    1W        W60810  22.091   9.303   0.908 -0.1337  0.0448 -0.0912
    1W        W60811   3.677  14.784   6.928  0.0327  0.3156 -0.3228
    1W        W60812  20.427   8.779   0.571  0.0004  0.0586  0.2011
    1W        W60813  12.691   9.794   8.270 -0.1731  0.3246  0.1307
    1W        W60814  20.536  25.239   8.398  0.0945  0.1572 -0.0632
    1W        W60815  22.718   1.410   2.617 -0.0094 -0.0427 -0.4025
    1W        W60816   2.894  23.012   5.186  0.1387 -0.1409  0.2954
    1W        W60817  19.017  21.884   8.763 -0.0196  0.0972  0.3237
    1W        W60818   0.399  12.857   1.710 -0.0358 -0.1286 -0.0186
    1W        W60819  23.692  29.919   7.643 -0.1453  0.0673  0.4894
    1W        W60820   4.695   8.599   8.528  0.0664  0.3282  0.2530
    1W        W60821   5.062   3.783   2.297  0.1137 -0.0346 -0.2195
    1W        W60822  28.313   3.007   7.468  0.1715 -0.0583  0.3041
    1W        W60823  19.168   3.053   1.276 -0.1468 -0.1108  0.3893
    1W        W60824  20.679   9.982   1.096 -0.4431 -0.3000 -0.0677
    1W        W60825   3.104  27.205   0.746 -0.1081  0.3162 -0.0471
    1W        W60826   2.548   0.737   7.534  0.0081 -0.2196  0.1294
    1W        W60827   4.279  22.451   0.332 -0.0614  0.0092 -0.0790
    1W        W60828   0.324  28.413   9.216  0.1312  0.2986  0.2169
    1W        W60829  29.347   8.026   7.614  0.0118  0.2867  0.1244
    1W        W60830  26.280  27.180   8.719 -0.1914 -0.0728 -0.1986
    1W        W60831   9.625   9.435   3.523  0.1993  0.1220  0.2376
    1W        W60832   7.454   0.084   1.254 -0.1090  0.0610 -0.0554
    1W        W60833  24.757  26.430   8.518  0.1099  0.0566 -0.1357
    1W        W60834   7.619  12.301   2.116 -0.1478  0.5783 -0.2401
    1W        W60835   5.427   7.881   3.185  0.1414  0.0376 -0.2553
    1W        W60836  27.987  12.341   0.542  0.6474  0.1205 -0.0188
    1W        W60837  15.290   3.765   1.898  0.0159 -0.2380 -0.4482
    1W        W60838   3.245  14.557   7.079  0.4173 -0.3866  0.3392
    1W        W60839   0.983   5.158   3.671 -0.0288  0.0392 -0.6443
    1W        W60840   4.267  17.951   8.717 -0.1931  0.0031  0.1016
    1W        W60841  12.859  22.571   8.678 -0.1936 -0.0009 -0.1120
    1W        W60842  14.857  17.762   0.865  0.1351 -0.3923 -0.1917
    1W        W60843  29.030  21.548   7.660  0.1777  0.0556 -0.1224
    1W        W60844  25.689  13.236   1.774  0.0838 -0.2939 -0.6879
    1W        W60845   4.167  18.002   0.608 -0.2145  0.1621 -0.0868
    1W        W60846  13.196   3.606   2.206  0.4310 -0.2227 -0.3463
    1W        W60847  24.147   1.576   1.957 -0.1864 -0.0366  0.2510
    1W        W60848  25.579  25.848   7.915 -0.0343 -0.0376 -0.3076
    1W        W60849  28.066   2.012   0.173  0.0194 -0.0705 -0.2195
    1W        W60850  17.053  10.822   7.120  0.1010  0.0609 -0.0315
    1W        W60851  24.380  13.617   6.039 -0.0005 -0.1918 -0.1942
    1W        W60852   6.179  18.281   7.968 -0.1117 -0.2636 -0.1407
    1W        W60853  19.180  24.697   8.387  0.0014 -0.2012 -0.1269
    1W        W60854  28.619  19.855   1.367 -0.0886  0.0128  0.0461
    1W        W60855  26.829  15.704   0.855 -0.0277  0.2862 -0.1483
    1W        W60856   5.503  11.839   1.569  0.2070  0.1802 -0.3014
    1W        W60857  12.127  28.388   6.695  0.3275  0.3638 -0.3570
    1W        W60858  13.112  13.619   2.879  0.0430 -0.0532 -0.2349
    1W        W60859   4.719  11.790   8.488 -0.0935  0.0882 -0.0489
    1W        W60860  29.512  28.277   8.364  0.2324  0.0210 -0.1298
    1W        W60861   1.492  16.010   7.727 -0.1393 -0.1990  0.0072
    1W        W60862  10.744  27.877   0.305  0.1932 -0.0304 -0.1972
    1W        W60863   2.630   6.461   1.198 -0.1961  0.1074 -0.2355
    1W        W60864   1.432  21.727   7.433 -0.2258 -0.0755 -0.0332
    1W        W60865  25.729   8.336   2.429 -0.1111  0.4293 -0.2028
    1W        W60866  19.707  21.291   7.735 -0.0741  0.0131  0.1074
    1W        W60867  13.058  22.614   9.253 -0.2463 -0.0314 -0.0579
    1W        W60868   5.517   1.252   3.531 -0.0491  0.0957 -0.0681
    1W        W60869   9.442  10.087   0.672 -0.5143  0.0456 -0.1490
    1W        W60870   9.698  10.769   8.967  0.0682  0.0285  0.3987
    1W        W60871  10.073  20.202   6.856  0.1806  0.2324  0.1054
    1W        W60872   5.935  24.262   1.442  0.0390  0.3738 -0.2513
    1W        W60873   5.854   5.203   8.295  0.0900 -0.1428  0.0650
    1W        W60874  23.288  23.727   3.463 -0.0320 -0.0016 -0.0336
    1W        W60875  19.920  20.578   0.462 -0.2140  0.2108 -0.1419
    1W        W60876  28.277  26.488   9.315  0.0997 -0.1032 -0.0505
    1W        W60877   5.610  17.158   6.826  0.1659  0.0494  0.1515
    1W        W60878  12.347   0.275   2.060 -0.0488  0.2422  0.0613
    1W        W60879  13.601   3.449   2.656 -0.0820 -0.1203  0.3487
    1W        W60880  15.483  16.276   1.515 -0.0282  0.2398 -0.0474
    1W        W60881  12.715  21.337   1.818 -0.3463 -0.0678 -0.1751
    1W        W60882  18.438  20.621   7.362  0.1429  0.0329  0.2062
    1W        W60883  23.964   7.343   2.282 -0.2568  0.2264  0.2368
    1W        W60884   0.483   7.743   0.608 -0.0371  0.3440  0.0602
    1W        W60885  18.755  19.217   6.914 -0.0224 -0.0363  0.2813
    1W        W60886   0.031   5.994   1.505  0.3883 -0.1907 -0.3150
    1W        W60887  19.004  15.679   8.118 -0.0272  0.1199  0.0861
    1W        W60888  29.427  20.243   8.564 -0.2897 -0.1696  0.1327
    1W        W60889   9.886   1.580   7.162 -0.0954 -0.3594 -0.1372
    1W        W60890  26.538  14.116   0.823 -0.2482  0.2857  0.0790
    1W        W60891   1.733   0.313   2.961  0.0274 -0.3881  0.0525
    1W        W60892  27.513   6.437   7.385 -0.1426 -0.0393 -0.0808
    1W        W60893  21.910   8.795   0.368  0.0697  0.2615  0.0199
    1W        W60894   1.853  17.819   6.686  0.3323 -0.1529  0.1243
    1W        W60895  13.158  26.538   1.289  0.2000 -0.2387 -0.2035
    1W        W60896  27.723  13.514   0.442 -0.4077  0.0172  0.0926
    1W        W60897   5.369   5.138   1.073 -0.0053  0.2322 -0.1209
    1W        W60898  19.536  29.212   6.985  0.1247 -0.0519 -0.0665
    1W        W60899   0.720   7.045   0.024  0.1030  0.0334  0.0222
    1W        W60900  16.636  29.164   7.596 -0.0978  0.1875 -0.1220
    1W        W60901   0.436   1.719   7.388  0.1388 -0.2535 -0.1242
    1W        W60902   1.620  27.005   2.808 -0.1211  0.0890  0.2797
    1W        W60903  21.747   3.301   2.100 -0.0268 -0.0648 -0.1020
    1W        W60904  17.806  24.137   7.140  0.0127  0.2239 -0.0040
    1W        W60905  11.297  14.429   8.104 -0.1050  0.0192  0.3393
    1W        W60906  10.667  22.407   1.044  0.0957  0.0067 -0.0772
    1W        W60907  13.322  11.575   9.198 -0.0154 -0.4308 -0.1911
    1W        W60908   8.582  12.112   1.233 -0.0274  0.0153 -0.2829
    1W        W60909   2.169  29.734   0.597  0.0381  0.1246  0.3743
    1W        W60910  16.379  20.831   7.991 -0.1304  0.0249 -0.2374
    1W        W60911  20.549   5.561   0.328 -0.0187 -0.1284  0.0939
    1W        W60912  27.088  20.074   7.226 -0.0490  0.0709 -0.1155
    1W        W60913  17.141  20.279   1.447  0.0507 -0.2836  0.0138
    1W        W60914  26.865   7.611   0.022  0.0086 -0.1172  0.0810
    1W        W60915  28.376  17.132   0.066  0.2245  0.0962  0.0778
    1W        W60916  28.378  17.986   5.707 -0.1115 -0.0398 -0.1843
    1W        W60917  16.815  28.581   8.417  0.0243  0.1710  0.2445
    1W        W60918  10.018   5.412   0.266  0.0665  0.1775  0.0050
    1W        W60919   1.044  26.049   5.838  0.1253 -0.0705  0.0452
    1W        W60920  22.296  23.613   1.231 -0.0150 -0.0709 -0.0812
    1W        W60921   0.672  20.005   6.579 -0.0805  0.0228 -0.1467
    1W        W60922   3.832  18.450   8.830  0.2249  0.2314  0.0548
    1W        W60923  29.667  16.869   7.369 -0.0720  0.1674 -0.2894
    1W        W60924  16.076  18.360   1.250 -0.0040  0.1201 -0.0852
    1W        W60925  23.412  10.458   6.710  0.1237  0.0092  0.2360
    1W        W60926   4.109  28.778   0.766 -0.0060  0.3150  0.1762
    1W        W60927  10.945  18.334   2.560 -0.2235 -0.1725  0.0670
    1W        W60928   7.912  22.765   9.057  0.0658 -0.1205 -0.1165
    1W        W60929   1.306  21.477   0.801  0.1061 -0.2930 -0.1897
    1W        W60930  22.937  13.789   7.565 -0.0650 -0.4032  0.3799
    1W        W60931   1.453  25.885   2.102  0.2670  0.0042 -0.2737
    1W        W60932  15.713  16.131   7.529 -0.2189  0.1673 -0.4391
    1W        W60933  18.036  19.498   2.543 -0.0812  0.2442  0.1552
    1W        W60934  10.938   5.051   1.435  0.0442  0.1532 -0.3005
    1W        W60935   0.160  13.424   9.067  0.1169  0.1931  0.0928
    1W        W60936  14.385  26.768   7.704  0.3267 -0.1128  0.1757
    1W        W60937  16.362   7.375   8.122 -0.0962 -0.0046 -0.0270
    1W        W60938  22.208  15.776   8.279 -0.1114 -0.0695  0.2862
    1W        W60939  14.776  25.399   0.254 -0.4096 -0.0016 -0.3209
    1W        W60940  28.804  29.996   0.064  0.0981 -0.2137 -0.0169
    1W        W60941   7.826  25.820   7.066 -0.3668 -0.2396 -0.0181
    1W        W60942   7.451  21.506   6.391 -0.0118  0.0140  0.1592
    1W        W60943  27.561  26.475   6.610  0.2617 -0.1817 -0.2632
    1W        W60944  11.440   0.174   3.568  0.0386  0.1660  0.1271
    1W        W60945  12.119   0.382   7.716  0.1141 -0.0921 -0.0429
    1W        W60946   9.639  16.030   1.462 -0.0459 -0.0144 -0.3574
    1W        W60947  20.907  28.460   1.198 -0.1521  0.1776  0.1400
    1W        W60948   6.768  19.978   9.224 -0.3490  0.1180  0.1173
    1W        W60949   8.195  15.507   8.360 -0.0552  0.0762  0.3369
    1W        W60950   5.636  28.762   8.810  0.0465 -0.1347 -0.1469
    1W        W60951  30.099  25.612   6.377 -0.2828  0.1404 -0.3201
    1W        W60952  20.294  26.406   2.758 -0.0754  0.1259  0.1264
    1W        W60953  26.677  10.657   1.361  0.1510  0.0108 -0.4215
    1W        W60954  10.138  11.111   8.850  0.1467 -0.3974  0.1310
    1W        W60955  21.772  11.306   7.649 -0.0057  0.0342 -0.1132
    1W        W60956  15.315   5.538   8.424  0.0994  0.0776  0.0374
    1W        W60957  27.822  21.593   9.244 -0.1903 -0.3148 -0.2248
    1W        W60958   0.531   5.268   6.209 -0.1067 -0.0105  0.2788
    1W        W60959   9.261  27.762   0.001  0.0257 -0.2757  0.1231
    1W        W60960  13.936  17.217   7.162 -0.0159  0.2423  0.0152
    1W        W60961  20.669  25.940   2.012 -0.1966 -0.2704 -0.2794
    1W        W60962   4.134  25.180   6.796  0.0468 -0.0717 -0.1337
    1W        W60963   2.089   2.220   1.325  0.0082  0.2400  0.1349
    1W        W60964   9.127  14.863   1.139  0.2668 -0.0628  0.2090
    1W        W60965  10.134  23.365   1.142  0.1487 -0.2320  0.1326
    1W        W60966  18.906  22.833   9.382 -0.1170 -0.0930 -0.1465
    1W        W60967   9.914  18.588   0.115 -0.2246 -0.0110  0.3569
    1W        W60968   4.872   7.747   6.795  0.0354  0.2645  0.1469
    1W        W60969  25.689  11.853   6.158  0.0871 -0.1924 -0.2673
    1W        W60970  29.863  13.143   1.058 -0.0509  0.1076  0.1631
    1W        W60971   4.975   3.403   1.923 -0.3360  0.0516  0.0748
    1W        W60972  15.145  11.156   0.592 -0.2221 -0.1543 -0.3316
    1W        W60973  15.573  22.458   6.655  0.1241 -0.3381  0.2020
    1W        W60974  23.180  18.621   6.375 -0.2382 -0.2816  0.0188
    1W        W60975  24.188  17.082   9.266  0.1017  0.0784 -0.1540
    1W        W60976   8.029  28.352   7.913  0.1541 -0.2572  0.1494
    1W        W60977   6.072  17.937   0.110 -0.2451  0.2620 -0.0486
    1W        W60978  16.096  10.132   8.085 -0.2213  0.2990  0.4064
    1W        W60979  18.528  17.093   1.636  0.1974 -0.1006  0.2255
    1W        W60980  21.082  13.976   1.474  0.0443  0.0249 -0.2548
    1W        W60981  26.551  14.859   5.396 -0.1883  0.2728 -0.0024
    1W        W60982   5.963  16.850   7.767 -0.0922 -0.0607 -0.0697
    1W        W60983   1.926  25.428   0.568  0.2401  0.1047 -0.0177
    1W        W60984  11.492  13.830   7.414  0.1746 -0.2150 -0.4383
    1W        W60985  11.520  28.481   8.333 -0.1357 -0.2439  0.2585
    1W        W60986  12.241  17.781   1.820 -0.1262 -0.2481  0.0603
    1W        W60987   0.232  21.611   1.706 -0.0908 -0.1482  0.3029
    1W        W60988   5.894  20.361   7.949 -0.1340 -0.3912  0.0976
    1W        W60989   7.283   8.540   2.364 -0.1941 -0.1595  0.3033
    1W        W60990  20.920  19.022   9.076  0.0401  0.0033  0.1774
    1W        W60991  12.158   3.459   9.098 -0.0419  0.2181  0.1317
    1W        W60992  26.776  11.643   6.173  0.1358  0.0760  0.1471
    1W        W60993  14.308  18.190   8.362 -0.0996  0.0067  0.0431
    1W        W60994  13.256  18.965   7.251 -0.1501 -0.0453 -0.0409
    1W        W60995   8.414   1.497   0.654 -0.0968  0.1293 -0.1484
    1W        W60996   4.921  26.571   7.094  0.0540  0.0430  0.0009
    1W        W60997   0.564   1.779   1.302  0.1136  0.1372 -0.0666
    1W        W60998  26.377  25.543   2.406 -0.0890  0.2024 -0.1547
    1W        W60999  17.317   6.155   3.522  0.0187 -0.1227 -0.1027
    1W        W61000  21.585   7.127   6.946 -0.1270  0.0924 -0.0543
    1W        W61001  23.331  12.153   1.146 -0.2426  0.1870  0.1854
    1W        W61002  11.429   0.316   0.182 -0.0283  0.1106  0.4927
    1W        W61003  24.763   6.184   0.524  0.0691  0.3156  0.2162
    1W        W61004   3.949   2.285   0.299  0.3597  0.0343 -0.1211
    1W        W61005  27.181   9.351   9.035 -0.2381 -0.2014 -0.0828
    1W        W61006   9.829  21.133   2.361  0.4343  0.1638 -0.1687
    1W        W61007  29.891   2.102   0.714  0.2431  0.2296 -0.2420
    1W        W61008  21.088  24.593   7.285  0.0349  0.3369 -0.1366
    1W        W61009  14.885  22.776   9.120  0.3325  0.0357  0.1360
    1W        W61010  24.654   8.764   1.743 -0.4491 -0.3803  0.3350
    1W        W61011  27.997   5.086   7.869 -0.3876  0.1865  0.2403
    1W        W61012  19.760  24.883   7.866  0.0323  0.0834 -0.1359
    1W        W61013  14.205   1.443   3.838 -0.1219 -0.2201 -0.1929
    1W        W61014  16.388   1.222   3.011 -0.3209  0.1032  0.1405
    1W        W61015  24.466  23.110   2.057  0.0327 -0.1821 -0.1986
    1W        W61016  21.249  24.566   0.905  0.1608 -0.5279 -0.4098
    1W        W61017  16.128   0.372   2.706  0.0123 -0.2036  0.0766
    1W        W61018   1.684   4.737   2.787 -0.1826  0.1047  0.2466
    1W        W61019  20.868  11.355   1.956 -0.0336 -0.3399 -0.1671
    1W        W61020  27.816   7.358   6.843 -0.1856 -0.2666  0.0116
    1W        W61021  13.834   8.787   2.934 -0.0602  0.1948 -0.1183
    1W        W61022   8.741   3.016   7.387 -0.1217  0.1187  0.0740
    1W        W61023  21.628  15.181   8.185 -0.2546 -0.2060  0.4107
    1W        W61024   6.881   2.482   3.307 -0.0692 -0.2759 -0.1910
    1W        W61025  23.737  11.248   0.756 -0.1764 -0.1510  0.0795
    1W        W61026   6.172   3.522   1.491  0.1016 -0.2405 -0.0256
    1W        W61027  17.786   8.763   0.402  0.2957  0.0174  0.4005
    1W        W61028  16.159   2.094   2.056  0.2174  0.2462  0.2740
    1W        W61029  27.172  21.315   7.163  0.4012  0.1199 -0.2479
    1W        W61030  20.635  28.978   6.385 -0.0454 -0.2155 -0.0786
    1W        W61031  28.583  29.134   0.991  0.1382 -0.1001  0.1006
    1W        W61032  23.775   6.887   8.405 -0.3741  0.0366  0.0394
    1W        W61033   2.455  24.038   7.496 -0.1127  0.0393  0.1984
    1W        W61034   7.178  20.402   8.087 -0.1214  0.0335  0.1647
    1W        W61035   0.893   5.395   8.622 -0.2526  0.0699 -0.0614
    1W        W61036  24.461   9.767   5.887  0.1576 -0.0873 -0.2254
    1W        W61037  25.025  12.421   1.939 -0.1187 -0.1159  0.0430
    1W        W61038  29.099  23.744   6.794 -0.0470  0.1513  0.1220
    1W        W61039  26.560   0.372   1.804 -0.1751 -0.1563 -0.1568
    1W        W61040   6.627  12.628   2.660  0.3625  0.0250 -0.2699
    1W        W61041  19.680   1.252   1.414 -0.1213 -0.1774  0.1931
    1W        W61042  27.817   3.769   8.563 -0.1227  0.1670  0.2307
    1W        W61043   9.429   2.840   3.188  0.0554  0.0753  0.0328
    1W        W61044  29.300   9.775   2.452  0.2611  0.0519  0.2364
    1W        W61045   9.049  15.384   1.064 -0.0035 -0.1746 -0.1953
    1W        W61046  12.835   6.336   0.996 -0.0658  0.0057  0.0635
    1W        W61047   1.252  29.651   8.257 -0.2265 -0.0097 -0.4328
    1W        W61048   5.797   6.759   8.568 -0.1196  0.0903 -0.2678
    1W        W61049  19.446  24.817   1.133 -0.2619  0.2716 -0.0515
    1W        W61050  27.345   3.876   6.975 -0.1072 -0.4028  0.3369
    1W        W61051   7.636  21.207   8.980 -0.2400  0.0056 -0.1872
    1W        W61052   3.207  11.538   6.532 -0.1487 -0.0364  0.0637
    1W        W61053   6.952   5.004   1.844 -0.0647 -0.1619  0.0538
    1W        W61054  15.529   4.776   2.984 -0.1518  0.0736  0.0968
    1W        W61055  14.532  25.931   2.889 -0.1407  0.1219 -0.1489
    1W        W61056   3.850   4.303   2.845  0.6030  0.4450 -0.0605
    1W        W61057  24.880  22.840   0.162  0.1588  0.0584  0.2392
    1W        W61058  24.727  13.143   2.529  0.0371  0.0862  0.0650
    1W        W61059  15.584   8.033   9.197  0.1014 -0.3596  0.2108
    1W        W61060  11.226  27.815   2.547 -0.0302  0.3011 -0.0094
    1W        W61061   6.513  24.472   8.350  0.0501  0.2435  0.2570
    1W        W61062  20.855   5.690   1.300 -0.0803  0.0231 -0.2562
    1W        W61063   9.275  24.715   8.341  0.1283 -0.2183  0.2713
    1W        W61064  22.321  17.648   7.467  0.1956  0.1202  0.0204
    1W        W61065  19.897  23.036   7.565 -0.0001  0.1129 -0.1442
    1W        W61066  15.980  24.831   0.552 -0.0299 -0.2610 -0.0990
    1W        W61067  27.219  10.458   2.042 -0.2517 -0.0077 -0.3796
    1W        W61068  16.257  25.617   1.226  0.0997 -0.1111  0.1209
    1W        W61069  19.844  21.787   7.617 -0.0362 -0.1010 -0.0868
    1W        W61070  27.891  27.478   7.895  0.2670  0.1497  0.1511
    1W        W61071   7.654  11.447   2.987  0.0590 -0.3854 -0.0356
    1W        W61072  13.270   4.604   1.309 -0.1646  0.1062  0.2956
    1W        W61073   1.590   9.066   8.129  0.3764 -0.4603  0.0621
    1W        W61074   8.886   3.869   3.002 -0.0835 -0.1024  0.2417
    1W        W61075  21.579   3.696   8.087  0.1219 -0.3462 -0.0531
    1W        W61076  25.807  26.478   8.556 -0.1651 -0.0823 -0.1561
    1W        W61077  26.846  22.286   2.073  0.3282 -0.0728  0.2329
    1W        W61078  26.032  13.856   1.568  0.3079  0.2831 -0.1157
    1W        W61079  18.703   3.083   8.567  0.0583  0.2066  0.1481
    1W        W61080  11.270   0.355   8.460 -0.2721 -0.0832  0.1401
    1W        W61081  10.931   0.749   3.098 -0.0198 -0.0989  0.0076
    1W        W61082  13.725   8.750   1.078 -0.1892 -0.0224 -0.0621
    1W        W61083  20.720   9.264   9.148 -0.1056 -0.0588 -0.2915
    1W        W61084  23.997   9.980   2.293  0.0541 -0.1158  0.0547
    1W        W61085   3.514  24.965   8.206 -0.1511 -0.0426  0.2837
    1W        W61086   6.327  28.158   1.135  0.0377  0.0317  0.4733
    1W        W61087  22.688   0.163   8.605  0.1809  0.2638 -0.0218
    1W        W61088  21.067  24.606   2.172 -0.1872 -0.1814  0.2030
    1W        W61089   5.944  27.496   8.493 -0.0792 -0.0203 -0.1308
    1W        W61090  26.599  18.209   5.509 -0.0285  0.1219 -0.3461
    1W        W61091   6.722  20.053   6.591 -0.0403  0.0976 -0.0442
    1W        W61092   0.738  15.434   9.251 -0.3320 -0.2016 -0.1490
    1W        W61093   8.031  17.691   8.783  0.2673 -0.2976 -0.1553
    1W        W61094  15.651   2.026   1.277 -0.1165 -0.2690 -0.0541
    1W        W61095  18.728  11.229   1.607 -0.0412  0.1062  0.3140
    1W        W61096   1.349  11.029   8.919  0.2946  0.0125  0.0954
    1W        W61097  19.724   5.602   6.949  0.0088 -0.1480  0.0195
    1W        W61098   2.068  19.848   7.787  0.1756 -0.3014 -0.3345
    1W        W61099  18.231   0.960   8.703  0.0449 -0.0398  0.2807
    1W        W61100   1.540   1.730   3.232  0.1301 -0.0003 -0.1446
    1W        W61101   2.641  11.121   8.001  0.1413 -0.2455 -0.0195
    1W        W61102  21.954  19.044   8.606 -0.2099 -0.4302  0.1841
    1W        W61103   1.358  18.988   1.179  0.1538  0.1491  0.1404
    1W        W61104  18.380  11.453   8.754  0.3076  0.2138 -0.1609
    1W        W61105  28.782  10.800   2.758  0.1244  0.1896  0.0348
    1W        W61106  20.935  28.119   9.113 -0.1579  0.0437 -0.1939
    1W        W61107  14.332  19.014   7.609 -0.0798 -0.0892 -0.0004
    1W        W61108  22.109  19.859   8.474 -0.1928  0.0663  0.0830
    1W        W61109   8.101  13.928   7.515  0.3639 -0.1994  0.0014
    1W        W61110  15.375  28.236   7.522  0.1050  0.0124  0.1296
    1W        W61111   3.171  24.189   0.721 -0.0622 -0.1121  0.0371
    1W        W61112   5.744  16.944   8.824  0.0209  0.2874 -0.3618
    1W        W61113  20.566  11.314   1.520  0.0899 -0.1804  0.1516
    1W        W61114  20.620   4.950   0.403  0.0783  0.0346 -0.0860
    1W        W61115  16.837   0.856   0.426  0.2558 -0.1702  0.0419
    1W        W61116  27.581  24.015   9.156 -0.1631 -0.0388  0.0758
    1W        W61117   9.777   9.811   7.557 -0.1450  0.1096  0.0653
    1W        W61118   9.330   5.514   0.981  0.2288  0.0442  0.1318
    1W        W61119  12.945  24.322   1.078  0.0856 -0.2353  0.0925
    1W        W61120  19.223   0.091   7.605 -0.0430  0.0600  0.4157
    1W        W61121  23.239  16.432   0.847 -0.1130 -0.1852 -0.0033
    1W        W61122  10.571  24.615   7.277 -0.0547  0.6442 -0.0086
    1W        W61123   2.915  27.446   7.599  0.2447 -0.0474 -0.0813
    1W        W61124   4.113  14.728   8.436  0.2825 -0.4834 -0.0636
    1W        W61125  21.733  13.344   1.133  0.0900 -0.0159  0.4311
    1W        W61126   3.907  28.618   1.513  0.2746 -0.1249 -0.0626
    1W        W61127  24.402  23.059   7.095  0.1482 -0.1791  0.0681
    1W        W61128  22.934  24.337   7.478 -0.2731 -0.1681 -0.1735
    1W        W61129   9.039  24.879   7.918 -0.1911 -0.1191 -0.0705
    1W        W61130   0.163   4.238   8.664 -0.1685  0.1677 -0.0765
    1W        W61131  14.219   7.154   3.383  0.0753  0.2705  0.4233
    1W        W61132  22.576  13.051   8.560 -0.0844  0.0135  0.2209
    1W        W61133  27.087  29.349   6.118  0.0774  0.1442  0.0171
    1W        W61134   7.576  14.084   7.585 -0.1281  0.2428 -0.1959
    1W        W61135  15.926   6.655   9.339 -0.0678 -0.0566 -0.0732
    1W        W61136   1.136  15.360   0.224 -0.1597  0.0044  0.0423
    1W        W61137  28.069  26.905   1.578 -0.4197  0.2565  0.0117
    1W        W61138  13.019  12.612   8.234  0.1015 -0.0113  0.0267
    1W        W61139  17.923  22.057   0.355  0.0044  0.0511  0.1503
    1W        W61140   0.505  14.069   5.134  0.2769 -0.3250  0.3922
    1W        W61141  21.038  23.295   5.971  0.0875 -0.0100  0.0119
    1W        W61142   7.814   6.526   8.658 -0.0159  0.0450  0.0100
    1W        W61143  28.241  14.962   5.828 -0.0893  0.2029  0.2296
    1W        W61144  29.975   8.625   0.883 -0.0566 -0.0428  0.2228
    1W        W61145  26.411  27.052   7.646  0.0175  0.2186 -0.1900
    1W        W61146   9.172   7.644   1.799  0.2290  0.1083  0.3569
    1W        W61147  25.707  15.462   0.132  0.3251 -0.0518 -0.0858
    1W        W61148  18.794  24.434   0.936  0.0914  0.0972  0.2028
    1W        W61149  28.914   3.357   2.071  0.1674 -0.0416 -0.0544
    1W        W61150  12.695  26.902   2.475  0.1548  0.0768 -0.0304
    1W        W61151  19.390   4.582   2.898 -0.1871 -0.1593  0.0686
    1W        W61152  19.364  17.658   8.968 -0.1662 -0.0868 -0.0427
    1W        W61153   7.934  22.395   0.886 -0.0229  0.1004 -0.1300
    1W        W61154   5.464   7.507   2.699  0.0562  0.0423  0.1826
    1W        W61155  15.833  17.206   0.100  0.0122  0.2300 -0.0316
    1W        W61156   8.097  23.838   7.849 -0.2017 -0.1270  0.0202
    1W        W61157  26.732   4.891   8.560 -0.3299  0.0010 -0.0058
    1W        W61158   0.260   7.871   6.425  0.2534  0.1200 -0.2676
    1W        W61159  25.478   9.834   0.024  0.0714  0.1240  0.3241
    1W        W61160  16.550  28.425   0.551  0.2082 -0.0722  0.1787
    1W        W61161  14.654  11.230   0.640 -0.1708 -0.3748  0.4248
    1W        W61162   3.951   5.697   3.359 -0.2656  0.2716 -0.1751
    1W        W61163  20.277  10.164   7.080 -0.1048 -0.0229 -0.1297
    1W        W61164  15.394   0.102   3.960 -0.1871  0.2561 -0.1509
    1W        W61165   6.627  26.197   0.471 -0.1506  0.0910 -0.1098
    1W        W61166  22.266   3.310   2.049 -0.1471  0.1589 -0.1507
    1W        W61167  18.073  14.943   1.269 -0.0650 -0.1711 -0.0629
    1W        W61168   4.759  13.144   8.148 -0.1479  0.2631  0.3080
    1W        W61169   2.031  25.519   6.662  0.0852  0.2141 -0.1384
    1W        W61170  18.662   8.286   7.869 -0.0396 -0.2255 -0.2090
    1W        W61171  23.456  29.229   3.083  0.0197  0.3211  0.0079
    1W        W61172  29.122   5.733   0.172  0.2037 -0.2331  0.1126
    1W        W61173   5.105  23.843   8.859 -0.2993 -0.0688 -0.1780
    1W        W61174   0.689  11.495   8.508  0.4444  0.1156  0.0636
    1W        W61175  12.244  23.397   6.584  0.2870  0.0892 -0.0025
    1W        W61176  17.226   9.795   7.564 -0.3766 -0.0278 -0.0736
    1W        W61177  11.672  11.884   0.668 -0.1058  0.1562  0.1849
    1W        W61178  13.297  19.114   0.632 -0.2260  0.0164  0.0238
    1W        W61179  12.075  15.363   0.856  0.1648 -0.1067 -0.2495
    1W        W61180  17.364   7.358   1.384  0.2468  0.0530 -0.0687
    1W        W61181   6.303  16.078   0.174  0.1108 -0.0535 -0.3212
    1W        W61182  19.595   8.314   9.118 -0.1148 -0.2621 -0.1870
    1W        W61183   1.154  25.058   7.776 -0.2649 -0.0286 -0.0854
    1W        W61184  18.882  21.407   7.613  0.1080 -0.1754  0.1114
    1W        W61185   9.350   4.340   7.189  0.1556  0.1299 -0.2207
    1W        W61186   4.258  14.722   0.375  0.1595 -0.2528  0.0659
    1W        W61187  26.527  29.301   9.246 -0.1103  0.1287 -0.0185
    1W        W61188  19.332   9.649   7.110 -0.1648  0.1292 -0.3717
    1W        W61189  29.661  26.152   2.228 -0.1670  0.0250 -0.0727
    1W        W61190  14.515  24.563   0.327  0.2926 -0.2163  0.1004
    1W        W61191   7.645  27.292   1.812  0.1969 -0.1463  0.1560
    1W        W61192  20.626  18.442   7.471  0.3865  0.5121 -0.2488
    1W        W61193  28.123  24.376   6.114  0.2088 -0.1606  0.1391
    1W        W61194  26.038  27.267   0.546  0.1472 -0.0707 -0.2505
    1W        W61195  24.044   3.194   1.524  0.2818  0.0361  0.2992
    1W        W61196  10.412  19.241   2.222  0.1109  0.2344 -0.0897
    1W        W61197  19.143   8.250   8.297 -0.1332 -0.2266 -0.2190
    1W        W61198  24.480  22.496   8.799  0.1623  0.2610 -0.3070
    1W        W61199  28.135  24.284   0.543 -0.1061 -0.0359  0.1994
    1W        W61200  28.691  13.569   6.461  0.2717 -0.3680  0.0611
    1W        W61201   6.937   1.586   8.673  0.1397 -0.2012 -0.4638
    1W        W61202  23.705   5.396   7.246  0.1653 -0.0175  0.2491
    1W        W61203  19.546   6.504   1.014  0.0586  0.0439 -0.1639
    1W        W61204  19.905  21.189   1.489 -0.0723  0.1420 -0.2140
    1W        W61205  24.064   1.278   2.455  0.0319 -0.0333  0.0371
    1W        W61206  22.532   0.948   2.553  0.0985 -0.1756 -0.1824
    1W        W61207  28.444   8.092   9.380  0.1542  0.0421 -0.0345
    1W        W61208   2.409   4.376   7.329  0.0260 -0.0628 -0.2427
    1W        W61209   9.134  24.205   1.576  0.2183  0.0890  0.1971
    1W        W61210  11.927  21.662   7.396  0.1510 -0.1728  0.2966
    1W        W61211   3.699  15.276   7.681 -0.2073 -0.3302 -0.0948
    1W        W61212   2.646   1.183   7.747  0.2328 -0.3050 -0.2294
    1W        W61213   9.512   5.934   1.818  0.0535  0.0843 -0.1349
    1W        W61214  29.701  19.914   7.186  0.0933  0.1524 -0.0188
    1W        W61215  25.508   1.324   2.230  0.1061 -0.1599 -0.3559
    1W        W61216  11.089  23.199   1.943 -0.4432 -0.2078  0.1891
    1W        W61217  24.712  27.432   7.237 -0.1060 -0.0891 -0.2092
    1W        W61218  13.869  23.075   2.589 -0.1283  0.0088  0.1425
    1W        W61219  21.220  15.423   8.111  0.2900 -0.0282 -0.0619
    1W        W61220   3.037  26.412   0.566  0.1640  0.2882  0.2916
    1W        W61221  23.653  23.646   7.024  0.2823  0.1352 -0.1513
    1W        W61222  13.028  25.599   8.289 -0.2662 -0.0505 -0.2232
    1W        W61223  14.684  14.699   0.018  0.3026 -0.1919  0.2505
    1W        W61224  21.683   3.243   2.842 -0.0032 -0.0940 -0.0960
    1W        W61225   1.027   1.473   7.132 -0.1295 -0.2676  0.0523
    1W        W61226  16.778  25.334   7.511 -0.0205  0.1793 -0.0245
    1W        W61227  11.310   8.839   2.120  0.1367  0.0570  0.3200
    1W        W61228  13.409  29.461   2.095  0.0610  0.0263 -0.3353
    1W        W61229   5.671  11.017   1.019  0.0412  0.0180 -0.0792
    1W        W61230  28.159   6.297   9.157 -0.1172  0.0445  0.4262
    1W        W61231  17.724  24.180   3.037  0.2652  0.0174  0.0915
    1W        W61232  24.568  19.837   5.961 -0.0140 -0.1726 -0.0983
    1W        W61233  16.643   9.580   2.017 -0.1869 -0.1805 -0.0864
    1W        W61234  28.251  19.646   7.654  0.1184 -0.0128 -0.2735
    1W        W61235   3.118   3.288   8.436 -0.0508  0.0449  0.0270
    1W        W61236   4.236  25.124   7.768 -0.1232  0.0881  0.2820
    1W        W61237  12.327  10.285   8.993 -0.1688 -0.0798 -0.0407
    1W        W61238   6.856  18.492   0.330  0.2498 -0.2380 -0.0172
    1W        W61239   6.174  15.795   1.861  0.1407  0.1815 -0.0004
    1W        W61240  24.046   1.506   7.047 -0.1390  0.0267  0.2103
    1W        W61241  12.753  18.983   8.477  0.0701 -0.2567  0.0308
    1W        W61242   3.238  20.199   0.073  0.3478  0.0629  0.1726
    1W        W61243  28.458  28.556   7.779  0.2586 -0.1015  0.0765
    1W        W61244  29.066  20.145   8.869 -0.2509  0.0011 -0.1274
    1W        W61245   0.833  27.817   7.139 -0.2372  0.0063  0.2382
    1W        W61246  23.443  19.825   0.482 -0.0316 -0.0547 -0.3194
    1W        W61247  20.846  22.180   1.651 -0.0148 -0.2107  0.1086
    1W        W61248   7.091  28.991   0.457 -0.0861  0.0565  0.0297
    1W        W61249  11.021  16.215   1.210  0.2127 -0.2033  0.1538
    1W        W61250  11.791  27.705   0.084  0.0134  0.1006 -0.0745
    1W        W61251   7.327  29.282   0.793 -0.3389 -0.1141 -0.1495
    1W        W61252  22.873  11.042   9.141 -0.1862 -0.2089 -0.0227
    1W        W61253   7.040   0.746   7.458 -0.0192 -0.0210  0.0258
    1W        W61254  21.244   4.641   1.973 -0.3127 -0.4000  0.3184
    1W        W61255  28.303  29.077   7.635 -0.0113 -0.1505  0.1296
    1W        W61256  19.634  18.521   9.260  0.1935  0.1681 -0.0046
    1W        W61257  14.057  24.127   8.182 -0.1704  0.5141 -0.0663
    1W        W61258  13.914  13.868   2.600 -0.1508 -0.0437 -0.1417
    1W        W61259  11.694  10.760   1.909  0.1080  0.2114  0.0095
    1W        W61260  23.442  20.670   6.430 -0.2473  0.2282  0.1475
    1W        W61261  27.217  10.435   8.638  0.1783 -0.3148 -0.2263
    1W        W61262   0.787   2.506   9.164  0.4027 -0.0050  0.0048
    1W        W61263  25.240  13.288   5.994  0.2423 -0.0654  0.1655
    1W        W61264  12.096  24.494   7.314  0.1082  0.1525  0.1157
    1W        W61265  24.504  28.331   2.888 -0.2725 -0.0521  0.1510
    1W        W61266   0.442  19.027   7.464  0.2901 -0.2275 -0.0270
    1W        W61267   1.751  30.086   0.738 -0.0015  0.1287 -0.0578
    1W        W61268  23.121  27.156   6.388 -0.1735 -0.0135  0.2471
    1W        W61269  10.653  28.177   7.782  0.0616 -0.3670 -0.3111
    1W        W61270  24.281  29.910   1.397  0.2485 -0.1014 -0.2641
    1W        W61271   1.793   8.036   1.199  0.0415 -0.0503  0.2205
    1W        W61272   4.524  17.693   6.081  0.0665 -0.0124  0.3019
    1W        W61273  11.086  19.175   9.114 -0.0585 -0.1393 -0.0891
    1W        W61274  11.629  12.354   0.563  0.0411 -0.1057  0.2689
    1W        W61275  14.979  21.336   0.906  0.0739  0.4085 -0.0620
    1W        W61276  28.963   5.948   8.828  0.1824 -0.0063  0.3198
    1W        W61277   3.023   4.947   0.740  0.1126 -0.0252 -0.1145
    1W        W61278   3.753  12.957   8.093  0.1158 -0.3403  0.1210
    1W        W61279  18.055  19.813   7.348 -0.2507 -0.0745 -0.1754
    1W        W61280   0.573  11.544   9.223 -0.2960  0.0201 -0.2801
    1W        W61281  26.991  28.473   1.615  0.0467  0.0038 -0.0898
    1W        W61282  22.031   3.637   8.891  0.0017 -0.1591  0.0837
    1W        W61283  19.911  17.518   2.499 -0.2156 -0.0045 -0.2380
    1W        W61284   5.095   2.673   3.505 -0.1681 -0.0619  0.0223
    1W        W61285  19.827  16.498   9.194  0.5263  0.2086 -0.1471
    1W        W61286   2.907   7.842   2.342 -0.1026 -0.2322 -0.0878
    1W        W61287  23.732  15.186   6.838 -0.3127 -0.2360  0.1639
    1W        W61288   5.108  27.827   8.215 -0.1847 -0.0797  0.1640
    1W        W61289  26.376   3.222   1.092 -0.2780  0.2322  0.0416
    1W        W61290   7.796   7.486   1.489  0.2336 -0.0101  0.1180
    1W        W61291  12.738  26.877   1.434  0.2604 -0.2156  0.1034
    1W        W61292  21.726  22.097   1.318 -0.1790  0.2062 -0.0893
    1W        W61293  15.874  21.811   8.193 -0.2829  0.2435  0.0576
    1W        W61294  21.271  16.835   0.731 -0.1260 -0.0457 -0.1787
    1W        W61295  13.794   5.749   2.965 -0.3729 -0.0860 -0.0183
    1W        W61296  10.324   1.380   7.211  0.4398 -0.1420  0.2712
    1W        W61297  29.848  13.687   2.287 -0.0631  0.4290 -0.1598
    1W        W61298  24.872  12.361   7.578  0.0400  0.0250 -0.0860
    1W        W61299  25.819   3.757   2.762 -0.0745 -0.1186  0.1433
    1W        W61300  24.134  25.412   8.485  0.5038  0.5966 -0.0663
    1W        W61301  10.183  26.495   6.974  0.0634  0.1693  0.2348
    1W        W61302   8.046  12.200   1.224 -0.0204 -0.1270  0.3959
    1W        W61303   7.649  24.695   0.389 -0.2996 -0.0079 -0.0108
    1W        W61304  27.717  27.039   7.585  0.1621 -0.1242  0.0136
    1W        W61305  22.624   3.002   0.378  0.1392  0.2088  0.2644
    1W        W61306  22.350   8.939   0.576  0.0209  0.0113 -0.1845
    1W        W61307   2.434  12.011   6.482 -0.0094 -0.1596  0.1893
    1W        W61308  14.133  11.316   2.512  0.2391 -0.1134 -0.2764
    1W        W61309  21.788  26.806   0.012 -0.0190  0.0758 -0.1431
    1W        W61310   2.044  28.443   1.193 -0.1143  0.1536 -0.2106
    1W        W61311   2.191  24.279   1.649 -0.2412  0.2065  0.1956
    1W        W61312  23.456  15.476   0.557  0.0060 -0.1994 -0.0621
    1W        W61313  28.544   0.235   1.964 -0.1715 -0.4024  0.0796
    1W        W61314  21.260  28.698   0.759  0.2147 -0.1104  0.3050
    1W        W61315  21.646   5.165   8.226  0.0947 -0.0175  0.2650
    1W        W61316  10.327  14.327   2.725  0.0671 -0.1099  0.2913
    1W        W61317  11.645  22.957   0.115 -0.0805  0.2830 -0.2010
    1W        W61318  12.280  26.159   9.237  0.1573  0.1746  0.1021
    1W        W61319   4.209   1.637   7.078  0.4151  0.1483  0.0708
    1W        W61320  16.307   6.662   2.585  0.1720  0.1530  0.0338
    1W        W61321  11.516  17.626   9.210  0.3056 -0.2678 -0.1078
    1W        W61322   5.407   2.820   2.388 -0.3741  0.0092 -0.1179
    1W        W61323   7.241   9.566   2.655 -0.1533 -0.3036 -0.0461
    1W        W61324  26.015  23.597   0.578 -0.1755  0.0474 -0.0070
    1W        W61325  10.708  26.617   2.565  0.0830 -0.0533  0.4547
    1W        W61326  25.459   3.862   8.260 -0.0910  0.0239  0.2781
    1W        W61327  25.478  23.792   9.239  0.0211  0.1476 -0.0532
    1W        W61328  11.696  26.325   0.890  0.2515  0.1759  0.1564
    1W        W61329   8.124   1.475   8.714  0.4297  0.4481 -0.1378
    1W        W61330   5.014   1.446   9.050  0.0686 -0.0099  0.0172
    1W        W61331  19.895  13.998   6.884  0.0514 -0.1406  0.1013
    1W        W61332   4.213  19.472   0.129 -0.0711  0.0611 -0.1033
    1W        W61333  24.829  12.995   1.159  0.1294 -0.0865  0.2594
    1W        W61334  26.819   9.728   0.102  0.0594  0.1697  0.4400
    1W        W61335  13.012  30.048   8.279  0.1413 -0.2572 -0.2098
    1W        W61336  19.493  24.773   2.633  0.1332  0.1227  0.2500
    1W        W61337   2.065  10.958   0.643 -0.0483 -0.0419 -0.2945
    1W        W61338  27.897  27.956   9.131  0.0854  0.0402 -0.0977
    1W        W61339   1.096  10.655   8.761  0.0957 -0.0276  0.2000
    1W        W61340  23.683  28.216   8.436 -0.0587  0.4059  0.0756
    1W        W61341  13.697   0.135   7.272  0.2667  0.0228 -0.0520
    1W        W61342  11.648   5.488   8.345  0.3315  0.4111 -0.1453
    1W        W61343  23.977   6.221   7.106  0.3259 -0.0815  0.1708
    1W        W61344  26.457  25.745   8.313  0.0648 -0.2187 -0.1977
    1W        W61345  23.315  20.780   0.483  0.0537  0.0826  0.2958
    1W        W61346  28.181  19.676   7.211  0.0923 -0.1370  0.2787
    1W        W61347   7.955   6.780   7.964 -0.1038 -0.0203  0.2205
    1W        W61348  20.414   0.352   2.434 -0.0902 -0.0891 -0.0316
    1W        W61349   1.733   4.815   6.354 -0.0200 -0.0031  0.0526
    1W        W61350   5.155  26.749   7.583 -0.1874 -0.0370 -0.0723
    1W        W61351  16.792  19.132   1.305  0.0717  0.1802 -0.1441
    1W        W61352  24.700  19.851   8.519 -0.0202  0.0201  0.1107
    1W        W61353  18.695  16.559   0.600  0.1005  0.2249 -0.1822
    1W        W61354  21.843   5.371   6.934  0.0885 -0.1799  0.2545
    1W        W61355   6.723   9.541   3.291 -0.0098  0.0023 -0.2357
    1W        W61356   0.681   3.406   0.711 -0.1284  0.1318 -0.1700
    1W        W61357  11.571   3.274   3.057  0.2648 -0.0907 -0.1228
    1W        W61358  21.112  18.709   1.181 -0.0023 -0.3767  0.0010
    1W        W61359   6.932   2.546   8.686 -0.3115 -0.2042 -0.1866
    1W        W61360  21.909   3.843   7.767  0.1172 -0.3241 -0.2214
    1W        W61361   6.250   2.250   0.995 -0.0440  0.1440 -0.1710
    1W        W61362  14.613   4.399   9.256 -0.3124 -0.0941  0.0813
    1W        W61363   1.994  24.846   0.051  0.1895  0.4061  0.1001
    1W        W61364   6.334  20.495   9.259  0.0677  0.3156  0.0595
    1W        W61365   3.719  15.837   0.519 -0.0984  0.0636  0.2403
    1W        W61366  16.474  17.099   9.258  0.2368 -0.2130  0.0243
    1W        W61367  24.299  18.478   1.883  0.1156 -0.1701  0.2054
    1W        W61368  21.330   8.225   1.070  0.2186 -0.0521 -0.1234
    1W        W61369   6.509   2.198   6.955 -0.0274  0.2040 -0.4565
    1W        W61370  28.213  10.603   7.246  0.1381  0.3962  0.0645
    1W        W61371  15.073   1.245   3.084  0.0171  0.2072 -0.1585
    1W        W61372  13.676  27.612   9.105 -0.0285 -0.0260  0.0543
    1W        W61373  17.018   3.579   0.342 -0.2000  0.0087 -0.1291
    1W        W61374   7.462   8.078   1.007 -0.1238  0.3253 -0.0178
    1W        W61375  17.369  25.585   3.527  0.0848  0.0651  0.0762
    1W        W61376  17.093   7.816   1.434 -0.2539 -0.1870 -0.2172
    1W        W61377   4.419  20.692   1.935 -0.2505  0.0705 -0.0293
    1W        W61378   2.118   4.077   0.591 -0.0276 -0.3715  0.0133
    1W        W61379   7.021  16.385   2.505 -0.0130 -0.1079 -0.2230
    1W        W61380  28.929   1.758   6.097  0.0701 -0.2588 -0.0315
    1W        W61381  19.271  17.673   8.085 -0.0146  0.0860 -0.0918
    1W        W61382  15.110  19.140   2.120 -0.1055 -0.1743 -0.2049
    1W        W61383  13.762  21.665   7.749  0.0343  0.1088 -0.2120
    1W        W61384  15.518   4.259   0.079 -0.0541 -0.1186  0.3561
    1W        W61385  15.464  22.962   1.435  0.2369 -0.1743 -0.1792
    1W        W61386  14.208  27.020   6.792 -0.2726 -0.0412  0.4232
    1W        W61387   0.322  24.775   1.688 -0.0608 -0.1616  0.4342
    1W        W61388  29.260  25.137   2.723  0.0832  0.1226 -0.3233
    1W        W61389  14.801  22.751   7.609  0.0670  0.0113 -0.1741
    1W        W61390  20.109   2.948   9.038  0.1546  0.1964 -0.2282
    1W        W61391  23.544  10.571   7.229  0.2595 -0.1709  0.0513
    1W        W61392   1.384  10.955   7.444 -0.0996  0.0666  0.1774
    1W        W61393  22.689   8.071   2.923 -0.1679  0.1327 -0.2199
    1W        W61394  27.730   2.523   8.026  0.1142 -0.0628 -0.0903
    1W        W61395   7.434  11.118   4.221  0.1031  0.2463 -0.2651
    1W        W61396   5.169  20.769   5.679 -0.0025  0.1002  0.2868
    1W        W61397   5.263   8.646   2.660 -0.0940  0.2371 -0.2580
    1W        W61398  21.504   3.039   0.909 -0.2713 -0.0877 -0.4264
    1W        W61399   9.311   5.487   3.667 -0.0312  0.1657 -0.3053
    1W        W61400  28.330  18.812   8.999 -0.1681  0.0008 -0.4214
    1W        W61401  26.304   0.516   7.606  0.0963 -0.1432  0.1233
    1W        W61402  29.188   2.123   8.560 -0.1135 -0.1390 -0.1035
    1W        W61403   3.963  18.200   6.651 -0.0758 -0.2475 -0.0646
    1W        W61404   7.318  12.185   0.739  0.0587 -0.0271  0.0997
    1W        W61405  29.055  18.209   1.734  0.0673  0.2834  0.2516
    1W        W61406  24.712  26.216   7.573  0.3899 -0.2970  0.0929
    1W        W61407   6.961   9.847   2.947 -0.1030  0.0416 -0.2045
    1W        W61408   1.384   7.716   2.350  0.0765 -0.0358 -0.0529
    1W        W61409  13.158   3.827   1.292 -0.0036 -0.1933  0.1852
    1W        W61410   1.015   9.842   2.131  0.0692 -0.0043 -0.0420
    1W        W61411  26.353  13.834   7.197  0.1749  0.2587 -0.1237
    1W        W61412  12.456   0.058   2.552 -0.0687 -0.3721 -0.0789
    1W        W61413  23.034  13.179   0.380 -0.1022  0.0847  0.0275
    1W        W61414  13.989   3.314   8.496 -0.0061  0.0218 -0.1316
    1W        W61415   2.918  19.993   7.918 -0.1474  0.1243 -0.3718
    1W        W61416   7.787  18.421   2.333 -0.2329  0.1112 -0.0448
    1W        W61417  27.235  17.396   8.350 -0.0341  0.1619 -0.0625
    1W        W61418  11.957  26.082   7.494 -0.0437 -0.0942 -0.0277
    1W        W61419  28.892  26.360   8.016 -0.0949  0.1334 -0.2480
    1W        W61420   8.078  23.877   6.149  0.1363 -0.1340 -0.4276
    1W        W61421  28.946  14.030   8.328 -0.1604  0.1828  0.2883
    1W        W61422  29.110  17.765   6.234 -0.0500  0.1093 -0.2068
    1W        W61423  14.257  17.142   8.396  0.0712 -0.0265 -0.0251
    1W        W61424   7.013  16.071   7.136 -0.2405  0.1680  0.0241
    1W        W61425  18.637  12.848   7.362 -0.0078  0.1474 -0.2944
    1W        W61426  12.103  10.508   8.593 -0.2170  0.1643 -0.1882
    1W        W61427  29.595   0.039   2.963  0.2062  0.0234  0.1406
    1W        W61428  26.112  11.838   8.682  0.1119 -0.2310 -0.2034
    1W        W61429  20.132   2.564   1.867  0.0488  0.2160 -0.1924
    1W        W61430   0.538   1.876   1.814 -0.1526 -0.0390 -0.1515
    1W        W61431   1.440  15.672   1.852 -0.1273  0.0714 -0.1056
    1W        W61432  22.287   9.980   1.783 -0.0154  0.0948 -0.0106
    1W        W61433  20.402   0.801   7.912 -0.0117  0.1866 -0.1057
    1W        W61434   1.414  29.839   1.145  0.3881 -0.2386  0.2054
    1W        W61435  29.628   4.003   7.564  0.4289 -0.1121 -0.1873
    1W        W61436  27.573  26.786   3.471  0.0965 -0.1703 -0.0290
    1W        W61437  13.438  14.015   8.495  0.0485  0.1439 -0.0854
    1W        W61438  22.500  13.508   8.236 -0.2059 -0.1952  0.1509
    1W        W61439  15.032   4.762   3.257 -0.0623 -0.4144 -0.2986
    1W        W61440  25.479  27.665   1.864 -0.0819  0.1114  0.0297
    1W        W61441   8.108  22.425   0.201 -0.0288  0.1512  0.0246
    1W        W61442   8.870   0.874   8.804 -0.1611 -0.0786  0.0827
    1W        W61443  25.652  16.076   6.502 -0.0492 -0.0384 -0.2056
    1W        W61444  12.508  12.861   0.297  0.0940  0.0226 -0.1243
    1W        W61445  27.937  22.672   1.553  0.2531 -0.2877  0.1328
    1W        W61446   5.018  10.192   1.715 -0.0296  0.2019 -0.0936
    1W        W61447   1.511  13.480   5.543 -0.1907  0.1364  0.1536
    1W        W61448  11.173  12.402   1.831  0.2993 -0.1407  0.0707
    1W        W61449  29.135  14.710   8.834 -0.2240 -0.1378 -0.2010
    1W        W61450   6.785  12.871   1.812  0.0041 -0.1089 -0.2209
    1W        W61451  27.343  18.954   6.179  0.0175 -0.0041 -0.1456
    1W        W61452  20.200   2.389   6.922 -0.1384 -0.2488 -0.2623
    1W        W61453  21.622  28.902   7.369  0.1824 -0.2463 -0.0240
    1W        W61454  29.043  29.077   8.790  0.3266  0.0491  0.3351
    1W        W61455  17.232  20.285   0.264  0.1277 -0.0912 -0.0079
    1W        W61456  26.851  19.645   5.783 -0.0284 -0.0905  0.1842
    1W        W61457  19.437  23.114   7.472 -0.0651  0.3205 -0.1065
    1W        W61458  27.634  14.621   8.044  0.1030  0.2148  0.3531
    1W        W61459  26.694   1.887   7.576  0.2893  0.3109 -0.0205
    1W        W61460   8.768  20.231   9.359  0.1605 -0.3692 -0.1926
    1W        W61461  20.474  22.510   0.202 -0.4491  0.0032  0.1913
    1W        W61462   4.865   6.815   6.992 -0.0526 -0.3379  0.2587
    1W        W61463  16.007  10.915   6.927  0.1679  0.0476 -0.1592
    1W        W61464   8.368   8.797   0.165  0.1532 -0.1677 -0.0979
    1W        W61465  19.361  16.075   7.990 -0.0312  0.2428 -0.1288
    1W        W61466  19.446   1.649   1.167 -0.0790 -0.0127 -0.1415
    1W        W61467  15.588  19.356   1.384  0.1596 -0.0747  0.0751
    1W        W61468  22.600  18.873   7.915 -0.0907 -0.0176 -0.2680
    1W        W61469  24.640  21.367   7.044  0.0338 -0.0064 -0.1178
    1W        W61470   5.826  27.375   8.021 -0.0701  0.0471 -0.1546
    1W        W61471   4.797   0.584   7.945  0.0191 -0.1150 -0.2543
    1W        W61472  10.694   1.880   0.873  0.0322  0.0844 -0.2193
    1W        W61473  28.981  11.581   8.407  0.1623  0.1319  0.1628
    1W        W61474   7.115  26.064   1.666  0.1528  0.0982 -0.2086
    1W        W61475  27.718  19.472   0.472  0.1158  0.1013  0.0438
    1W        W61476  17.516   5.191   6.975 -0.2072 -0.0861  0.2063
    1W        W61477  19.712  26.299   1.633  0.1945 -0.0013  0.0966
    1W        W61478  27.157  25.313   1.917  0.1939  0.0968 -0.1271
    1W        W61479  29.951  12.778   8.380 -0.2066  0.2606  0.0905
    1W        W61480  28.057  17.931   0.549 -0.0324  0.3882 -0.2217
    1W        W61481  10.970   1.529   1.967  0.3356  0.2167 -0.0133
    1W        W61482   0.215  15.970   1.078 -0.3489 -0.3794  0.0322
    1W        W61483  19.078   7.653   2.435 -0.1757 -0.0509  0.3439
    1W        W61484  12.467   8.173   0.047  0.2217 -0.1703 -0.2791
    1W        W61485   9.485   8.434   6.965 -0.1318 -0.0355 -0.0015
    1W        W61486  18.069  24.077   7.533 -0.1093  0.0932 -0.2862
    1W        W61487  13.937   0.859   0.075 -0.2129  0.0445 -0.0330
    1W        W61488  15.822  16.618   8.732  0.1825 -0.2261  0.2111
    1W        W61489  22.461  27.515   0.816 -0.0526  0.0507 -0.2458
    1W        W61490  11.426  15.787   8.859 -0.2821  0.0886 -0.1542
    1W        W61491  12.788  20.564   7.749  0.0931 -0.4137 -0.0392
    1W        W61492  25.889  28.747   3.200 -0.2155 -0.0792  0.1874
    1W        W61493  20.767  29.493   0.404 -0.0807  0.3751 -0.0061
    1W        W61494  29.458  17.997   1.326 -0.0411 -0.1518 -0.2530
    1W        W61495  18.469  15.739   0.708  0.1482 -0.1280 -0.0922
    1W        W61496   6.220  13.973   7.639 -0.2325 -0.0954  0.3986
    1W        W61497   4.764  12.175   0.932 -0.2320 -0.4611 -0.0972
    1W        W61498  25.257  19.440   6.403  0.0073 -0.0035 -0.0876
    1W        W61499  16.528  23.554   0.402 -0.0725 -0.2073  0.2321
    1W        W61500  19.317  28.470   1.271  0.1459 -0.1094  0.0778
    1W        W61501   5.131  15.399   0.556 -0.0407 -0.0390 -0.1957
    1W        W61502   0.297  23.081   8.122 -0.0120 -0.0084  0.2210
    1W        W61503   0.025  26.982   0.017  0.1987  0.0686  0.0027
    1W        W61504  24.077   6.292   1.170  0.1620  0.2525  0.0651
    1W        W61505  26.861  24.055   2.152  0.1822  0.2659  0.0912
    1W        W61506  15.915  13.702   9.324  0.0544  0.0919  0.0516
    1W        W61507  26.904  13.969   1.818  0.1715 -0.0777 -0.1533
    1W        W61508  25.590  27.500   0.586  0.0911 -0.1279  0.1633
    1W        W61509  20.211  26.614   0.718 -0.1908  0.2310  0.0008
    1W        W61510  13.685  27.683   0.746  0.3886  0.1073  0.0630
    1W        W61511  14.181  12.344   0.055 -0.1818 -0.0282 -0.1912
    1W        W61512   5.606  27.958   0.298  0.0452  0.1221  0.0368
    1W        W61513  24.582  28.854   3.120 -0.1504  0.3209 -0.1781
    1W        W61514  29.591  12.312   2.138  0.1357 -0.0835  0.0174
    1W        W61515   9.013  29.921   2.861 -0.4100  0.1905  0.0484
    1W        W61516  26.824   2.995   2.548 -0.0851 -0.2214  0.1745
    1W        W61517   2.908   5.630   1.492 -0.0153 -0.5198  0.1982
    1W        W61518  17.560   2.021   7.290 -0.0217  0.2698 -0.2250
    1W        W61519  13.663  28.836   1.301 -0.0586  0.2686  0.2957
    1W        W61520  27.476   7.776   0.731  0.1417 -0.0654  0.0451
    1W        W61521  14.985  23.557   1.966  0.0983  0.2044  0.3438
    1W        W61522   0.776   9.444   1.865 -0.0664 -0.1236  0.0914
    1W        W61523   1.062  11.276   1.055 -0.0001  0.0055  0.0046
    1W        W61524  25.333  29.098   9.100  0.1523  0.2299 -0.0436
    1W        W61525  19.524   6.862   1.448 -0.1060  0.1583 -0.0325
    1W        W61526  11.982  25.245   2.035  0.0032 -0.0198  0.0668
    1W        W61527  20.504  20.033   1.221  0.0694 -0.0953  0.1682
    1W        W61528   6.675  17.848   6.567 -0.0483 -0.0026 -0.1714
    1W        W61529  24.871  21.435   6.623 -0.1099 -0.0831 -0.1228
    1W        W61530  17.987  21.522   0.228  0.1292 -0.0550  0.1992
    1W        W61531  16.958  15.196   0.975  0.1934  0.1529  0.1607
    1W        W61532  13.259  22.919   7.762  0.0113 -0.1292 -0.0245
    1W        W61533  13.279  27.702   6.987  0.1875 -0.0671  0.2524
    1W        W61534  11.591  19.767   1.348  0.2989 -0.2253 -0.0513
    1W        W61535  12.152  10.382   3.766  0.1627  0.3523 -0.0557
    1W        W61536   6.856   1.929   7.515 -0.0330 -0.1869 -0.5192
    1W        W61537  24.265   7.558   0.879 -0.2362  0.0349  0.1183
    1W        W61538  13.421   7.788   1.087  0.1347 -0.0905 -0.1765
    1W        W61539  29.633   8.551   8.134 -0.1379  0.3282 -0.1807
    1W        W61540   4.957  24.737   7.083 -0.0151  0.1484  0.1949
    1W        W61541  18.114  17.943   1.764 -0.2548 -0.0405  0.0612
    1W        W61542  29.279   9.331   6.984 -0.0073  0.0214  0.3152
    1W        W61543  16.265  18.700   0.877 -0.2111  0.0008  0.0411
    1W        W61544   8.555  18.730   9.079  0.1258 -0.2438  0.2275
    1W        W61545  20.912   2.128   6.511 -0.0742 -0.1648 -0.1442
    1W        W61546  23.439  29.979   1.176 -0.1379  0.1877 -0.0956
    1W        W61547   8.335  25.402   0.082  0.0560  0.2704 -0.1444
    1W        W61548  12.563  11.145   2.225  0.2237 -0.0022 -0.0228
    1W        W61549   3.179  18.594   7.689  0.0122  0.1247 -0.2338
    1W        W61550   2.944   1.967   0.365 -0.0527  0.1338  0.0142
    1W        W61551   9.390   0.926   8.302 -0.0751  0.0270 -0.1253
    1W        W61552   6.776  25.482   6.867  0.0660  0.0023 -0.3617
    1W        W61553  22.024  29.726   2.110  0.1764  0.1066  0.2109
    1W        W61554  13.221  23.641   1.059  0.0794  0.2078 -0.3177
    1W        W61555  25.165  23.696   1.349  0.2847  0.1066 -0.0385
    1W        W61556   4.544  25.527   7.417  0.0757  0.1528 -0.0074
    1W        W61557  10.043  27.132   7.090 -0.1885 -0.0050 -0.2581
    1W        W61558   4.511  28.786   8.722  0.2913 -0.1880  0.2848
    1W        W61559  20.947  10.395   7.910 -0.1906 -0.0503 -0.0918
    1W        W61560  17.096   9.949   8.059  0.1258 -0.1879 -0.0099
    1W        W61561   5.447   9.102   0.517 -0.0227 -0.2465 -0.0917
    1W        W61562   5.055  22.228   1.012 -0.2453  0.0368 -0.0786
    1W        W61563  19.266   7.278   0.760 -0.1931 -0.2699 -0.2720
    1W        W61564  25.114   9.341   8.273  0.1522  0.2018  0.1612
    1W        W61565  25.689  17.538   6.768 -0.4098  0.2119 -0.2226
    1W        W61566  13.245   0.103   1.669 -0.0446 -0.1320 -0.2010
    1W        W61567  26.219   5.113   6.718 -0.0858 -0.2494 -0.1653
    1W        W61568  21.547  16.562   8.669 -0.0027  0.1056  0.1306
    1W        W61569  21.454   5.660   1.963  0.0183 -0.0298  0.0266
    1W        W61570   5.181  12.721   1.545 -0.2786 -0.0445  0.0311
    1W        W61571  27.519  17.969   0.554 -0.1886 -0.1179  0.0397
    1W        W61572  16.018   6.744   2.136  0.0915  0.1235 -0.4312
    1W        W61573  12.108  11.325   2.387  0.0062 -0.0994  0.1225
    1W        W61574  19.387  24.581   1.551  0.3325 -0.2450 -0.0249
    1W        W61575  29.245   5.040   1.547 -0.2039  0.0209  0.3173
    1W        W61576   6.232  29.570   2.026 -0.1144  0.3083 -0.1575
    1W        W61577   7.213  29.689   9.270 -0.3167 -0.0175  0.2514
    1W        W61578   7.639  15.582   9.073 -0.4555 -0.0872 -0.2326
    1W        W61579  23.322  13.238   6.748 -0.0607 -0.2764 -0.0747
    1W        W61580  12.913   9.485   6.986  0.1376  0.1563 -0.4364
    1W        W61581   8.624   7.294   2.424  0.2474 -0.0854  0.2719
    1W        W61582   7.963   5.779   1.208 -0.1943  0.3503  0.0782
    1W        W61583  15.670  14.572   7.783  0.1070 -0.0811 -0.1133
    1W        W61584  13.240  26.387   1.938 -0.3037 -0.2638 -0.1135
    1W        W61585  14.560  11.507   7.414 -0.1191 -0.1598  0.2435
    1W        W61586  26.583  11.627   8.798  0.3634  0.0657  0.1773
    1W        W61587  13.338  28.440   3.324  0.0072 -0.3563  0.0190
    1W        W61588  10.543  25.745   8.563 -0.3242 -0.1903 -0.3451
    1W        W61589  10.684  21.688   7.977  0.0024 -0.1362  0.1913
    1W        W61590   2.532   2.834   9.010  0.2615 -0.1286 -0.1429
    1W        W61591  12.439  24.372   0.275  0.0814 -0.2323 -0.1086
    1W        W61592  15.930   1.932   8.954 -0.0775  0.1890  0.1463
    1W        W61593  22.590  11.953   6.772 -0.0463  0.1402 -0.0385
    1W        W61594  22.479  10.325   2.667 -0.3348 -0.2104 -0.1606
    1W        W61595  11.010   2.615   8.695  0.0643 -0.1110  0.1458
    1W        W61596   9.372  14.322   0.330 -0.2504  0.0256 -0.5303
    1W        W61597  21.934  16.957   8.086 -0.0172 -0.1387  0.2769
    1W        W61598   8.018   6.042   7.318  0.3507 -0.2310 -0.1323
    1W        W61599   8.880  27.472   1.596 -0.1055 -0.0572 -0.1150
    1W        W61600   1.317   7.801   7.347 -0.2345  0.2564  0.1221
    1W        W61601  25.814   9.009   8.029  0.0416 -0.3959  0.0125
    1W        W61602   2.837   2.206   2.600 -0.2908  0.0164  0.1747
    1W        W61603   8.112  10.727   8.159 -0.0654  0.0461 -0.4064
    1W        W61604  11.712   4.889   2.246  0.0493  0.3828 -0.0218
    1W        W61605  22.035   1.015   1.737 -0.1628  0.1027  0.1609
    1W        W61606  24.365  27.323   1.029 -0.0137 -0.0872 -0.0386
    1W        W61607   8.198   2.313   9.076 -0.0461  0.0375  0.3078
    1W        W61608  26.308   3.346   1.627 -0.2546  0.1058  0.0045
    1W        W61609  29.127  15.646   7.714 -0.0418  0.3645  0.2231
    1W        W61610  12.995  15.883   8.582  0.1881  0.3184 -0.1498
    1W        W61611  14.395  19.925   7.294 -0.1004 -0.0142  0.0553
    1W        W61612   1.411  22.565   7.701 -0.0062 -0.1554  0.1173
    1W        W61613   5.101  22.815   5.759 -0.0470 -0.1467  0.1456
    1W        W61614  21.642  15.568   7.807 -0.1240  0.0727 -0.0379
    1W        W61615  10.601   7.490   0.389 -0.0236 -0.2080 -0.1311
    1W        W61616  21.831  26.884   8.234 -0.2406 -0.1914  0.1861
    1W        W61617  22.195   1.496   7.119  0.3715 -0.0748  0.1050
    1W        W61618  19.854   2.986   8.232 -0.1558  0.1518  0.1227
    1W        W61619  29.814  18.728   5.393  0.0076 -0.1668  0.2905
    1W        W61620  18.516  20.111   1.477  0.2324 -0.0880  0.0709
    1W        W61621   0.281   4.124   6.790  0.1923  0.1878  0.3262
    1W        W61622  23.859  14.744   8.732 -0.2666 -0.0304  0.0689
    1W        W61623  25.647  16.747   7.112 -0.1641 -0.1475  0.1992
    1W        W61624  29.878  16.941   6.953  0.2288  0.1405 -0.0737
    1W        W61625  27.122   2.265   6.946 -0.3433 -0.2695  0.4319
    1W        W61626  14.766   3.700   1.060 -0.1566  0.4654 -0.0601
    1W        W61627   3.534  24.324   8.476 -0.1377  0.0870  0.1070
    1W        W61628  21.183   4.816   2.474 -0.1663  0.0898  0.1870
    1W        W61629  21.640  19.965   8.536  0.0285  0.1401 -0.0128
    1W        W61630  25.359  28.235   1.867  0.0729  0.0278  0.1192
    1W        W61631  20.513  23.347   1.324 -0.2857  0.2069 -0.1675
    1W        W61632  18.009  24.073   1.492  0.1093  0.5465  0.0561
    1W        W61633   3.031  25.569   8.635  0.5983 -0.1251  0.1701
    1W        W61634  28.862  15.971   1.144 -0.1009 -0.1995 -0.3291
    1W        W61635  24.034   3.872   8.063  0.1900 -0.1332  0.1156
    1W        W61636  28.743  14.954   5.728  0.1391  0.1582 -0.3862
    1W        W61637  13.780  20.235   1.205  0.0060 -0.1290  0.1998
    1W        W61638   8.052   4.255   2.286 -0.0917  0.3902  0.1121
    1W        W61639   5.032  13.065   0.044 -0.1211 -0.1079  0.2694
    1W        W61640  17.988  26.003   0.595 -0.1307  0.0167 -0.2049
    1W        W61641  28.455  28.516   0.476  0.3881 -0.2526  0.1675
    1W        W61642  27.961   9.064   7.242 -0.0478  0.0273  0.2861
    1W        W61643   2.810   1.412   2.926 -0.2575 -0.1683  0.2722
    1W        W61644   2.911  27.000   7.337  0.0009 -0.2357  0.0093
    1W        W61645   8.460  14.247   7.774 -0.0376 -0.0675 -0.0842
    1W        W61646  26.422  22.345   7.138  0.0626  0.0741  0.0144
    1W        W61647  25.217  14.071   1.396 -0.1059 -0.0473  0.1489
    1W        W61648  16.433   9.381   9.290  0.3693 -0.1673  0.1317
    1W        W61649  11.557  11.698   7.835  0.2850 -0.0736 -0.0803
    1W        W61650   0.491  11.830   1.422  0.0971 -0.0544 -0.0161
    1W        W61651   9.799  13.998   0.313 -0.1274 -0.1196 -0.1412
    1W        W61652   5.597  26.621   8.470 -0.1850  0.2608  0.1544
    1W        W61653  20.030  26.108   0.028 -0.1208  0.0880  0.1564
    1W        W61654   8.409   4.828   0.466  0.0768 -0.1790 -0.1266
    1W        W61655   1.578  20.032   1.131 -0.1936 -0.1590  0.0037
    1W        W61656  18.549   5.229   9.071  0.3387  0.1000  0.0520
    1W        W61657   1.917  18.031   0.448  0.0471 -0.0083 -0.1784
    1W        W61658  21.520  15.819   1.553  0.1383 -0.1415  0.1773
    1W        W61659  11.292  22.170   1.750 -0.0187 -0.0062 -0.1136
    1W        W61660   5.221  25.792   0.415  0.1084  0.1857 -0.2921
    1W        W61661  14.376  11.983   9.096 -0.3204  0.4186  0.1345
    1W        W61662  16.616  17.834   1.641  0.2308  0.2224  0.0876
    1W        W61663   7.551   7.921   8.300  0.1711 -0.2610 -0.0130
    1W        W61664   2.189  17.246   7.350 -0.3146 -0.0027  0.1291
    1W        W61665  25.454   1.102   8.923  0.0292 -0.1787  0.2762
    1W        W61666   4.837  20.865   1.784 -0.1314  0.0035  0.2808
    1W        W61667   2.158  20.207   5.833  0.0692  0.0057 -0.0396
    1W        W61668  20.182  25.070   6.631 -0.2177 -0.0632  0.1353
    1W        W61669  17.138  13.630   7.153  0.0701  0.0035  0.1634
    1W        W61670  22.998   2.844   9.097 -0.4761  0.2115 -0.3451
    1W        W61671  18.513  15.230   1.345 -0.0328 -0.2462  0.0324
    1W        W61672  11.018  14.561   0.315  0.3017 -0.0693 -0.2485
    1W        W61673  21.913  14.147   0.399  0.0311 -0.0994  0.3636
    1W        W61674   8.044  21.894   0.985 -0.0264  0.0480 -0.0814
    1W        W61675  28.565  22.904   6.843  0.0014  0.2312 -0.1520
    1W        W61676  28.906  16.721   7.639  0.0782 -0.0346  0.1484
    1W        W61677   7.672   8.765   0.099 -0.3758  0.0565  0.1015
    1W        W61678  13.799  11.490   0.023 -0.3925 -0.0354 -0.0542
    1W        W61679  18.949   1.791   1.099 -0.0905  0.1250 -0.2992
    1W        W61680   0.235   0.466   7.501 -0.2040  0.1072 -0.1090
    1W        W61681  15.322   3.246   1.727  0.1309  0.0763 -0.0040
    1W        W61682  14.163  15.948   7.113  0.1532 -0.1431 -0.2686
    1W        W61683  23.735   5.621   8.269  0.0040 -0.0174 -0.3353
    1W        W61684  10.847   9.994   1.893 -0.2195 -0.0221 -0.0005
    1W        W61685  20.884  12.215   0.093 -0.4196 -0.1444  0.3009
    1W        W61686  16.384   6.988   3.806 -0.1622 -0.0749  0.0687
    1W        W61687  23.570  14.850   8.186  0.0241 -0.0656 -0.1469
    1W        W61688   1.544  11.675   7.309 -0.1984  0.0976  0.1919
    1W        W61689  12.858  23.090   1.904 -0.1101  0.1345  0.1510
    1W        W61690  10.934  12.546   3.250 -0.0024  0.1220  0.0532
    1W        W61691   0.526   4.039   0.767  0.2106 -0.0145  0.3605
    1W        W61692   7.706  18.116   1.166 -0.0725  0.1548  0.0472
    1W        W61693   9.763   9.303   2.507 -0.0394  0.0867 -0.3094
    1W        W61694  22.415  18.477   0.306  0.1403  0.3871  0.1168
    1W        W61695   0.212  28.549   8.128 -0.0619 -0.2540 -0.0938
    1W        W61696  16.896   9.049   7.697  0.4237  0.0359  0.1513
    1W        W61697   1.387   2.232   7.042 -0.0517 -0.3922  0.1367
    1W        W61698  18.519  29.973   1.413  0.1571  0.1483  0.0529
    1W        W61699  23.120   3.065   8.263  0.2294  0.0262 -0.1064
    1W        W61700  18.118   9.753   7.960  0.2568 -0.1510 -0.3002
    1W        W61701  22.491  29.445   6.744  0.1367  0.3032 -0.1699
    1W        W61702  14.049  28.827   2.280 -0.0859  0.0886  0.0984
    1W        W61703  20.392  28.582   8.677 -0.4669  0.2979  0.2405
    1W        W61704  21.873  27.853   0.170  0.1447 -0.1564  0.3098
    1W        W61705   8.974  24.811   0.978  0.4085  0.2319  0.2951
    1W        W61706  27.232   7.961   1.579 -0.1255 -0.1484 -0.1098
    1W        W61707   0.293  15.160   5.294 -0.2468 -0.3710  0.0464
    1W        W61708  21.293   3.833   3.549  0.1067 -0.2462  0.1694
    1W        W61709  13.807  20.911   6.379  0.0997 -0.0985  0.0601
    1W        W61710  21.803  19.067   0.270 -0.3287 -0.0240  0.0599
    1W        W61711  20.987  16.157   7.524  0.3640  0.3595  0.0115
    1W        W61712  19.803  16.667   1.777  0.1049 -0.2021 -0.0791
    1W        W61713  26.519  13.743   5.967  0.1901 -0.0924  0.0087
    1W        W61714  15.743   2.446   8.696 -0.2374  0.1743  0.0225
    1W        W61715  23.359  17.427   5.881 -0.0132 -0.0619 -0.0297
    1W        W61716  29.976  13.639   9.358  0.0628 -0.0973 -0.0510
    1W        W61717  21.954  20.904   6.919 -0.0501  0.1228  0.4470
    1W        W61718   7.740   0.948   9.219 -0.1445  0.0588 -0.0932
    1W        W61719  11.923   1.599   1.711 -0.3738  0.1392  0.0324
    1W        W61720  17.683  23.093   2.115  0.2823 -0.1005 -0.0288
    1W        W61721   5.392  25.405   0.090 -0.5024  0.0581 -0.2585
    1W        W61722  19.907  17.776   0.226 -0.0347  0.0695 -0.0731
    1W        W61723  18.217   0.851   6.552  0.0314  0.2232 -0.0053
    1W        W61724  29.286  16.825   1.839 -0.2019 -0.1420  0.0770
    1W        W61725  24.032  16.912   5.398 -0.1916  0.0654  0.3948
    1W        W61726  16.007  12.838   0.907 -0.2559 -0.0046 -0.3552
    1W        W61727   9.154  29.725   8.538 -0.1705  0.1194 -0.1252
    1W        W61728   2.446  14.593   2.291 -0.0348  0.1687 -0.0992
    1W        W61729   3.222   8.068   9.392  0.0740  0.2587  0.0560
    1W        W61730  19.647  21.149   7.240  0.2182 -0.1982  0.0561
    1W        W61731  29.737   3.991   8.092 -0.0052  0.2625  0.0624
    1W        W61732  24.019  10.836   1.662 -0.3158 -0.2597 -0.1179
    1W        W61733  11.686  12.260   1.070 -0.1000 -0.0041  0.0810
    1W        W61734  25.801  10.767   1.766  0.0821  0.1244 -0.0059
    1W        W61735  28.827  14.977   1.990  0.1387 -0.4938  0.0344
    1W        W61736  10.834  12.508   0.809  0.0017 -0.0301 -0.1600
    1W        W61737  14.845  23.208   1.656 -0.3746  0.0846 -0.0015
    1W        W61738  26.348  18.072   1.656 -0.0074  0.1410  0.0338
    1W        W61739   6.627  21.235   0.918  0.1003 -0.3418 -0.1718
    1W        W61740  17.705  16.443   9.079  0.0948 -0.0925 -0.0632
    1W        W61741   7.054  19.969   5.491 -0.0478 -0.5389  0.0913
    1W        W61742  25.386   3.022   1.642  0.3596 -0.0029 -0.0076
    1W        W61743  29.558   0.290   7.273  0.0749 -0.3162 -0.0300
    1W        W61744  10.462   6.805   2.963  0.0998 -0.2474  0.0921
    1W        W61745   4.186  25.691   1.622 -0.2977 -0.0972 -0.0061
    1W        W61746   7.487   3.973   7.959 -0.2129 -0.0573 -0.1163
    1W        W61747  10.684  21.425   1.224  0.1764 -0.0486 -0.1493
    1W        W61748  12.749  27.849   6.781 -0.0255 -0.2321 -0.1400
    1W        W61749  29.860  11.359   8.283  0.0492 -0.0160 -0.0957
    1W        W61750  21.466  20.292   8.997 -0.0943  0.2638 -0.4881
    1W        W61751  16.365  18.795   1.315 -0.0819  0.1410 -0.0400
    1W        W61752  11.166  12.178   9.364 -0.0421 -0.0558 -0.1169
    1W        W61753  22.715  20.430   6.596 -0.0100 -0.2752  0.1611
    1W        W61754   7.394  24.823   1.169 -0.0592 -0.0514  0.1295
    1W        W61755   2.339  29.968   7.224 -0.0414  0.2282 -0.2291
    1W        W61756  12.452  15.561   7.360  0.0210  0.1513 -0.2203
    1W        W61757   9.725  12.494   8.879  0.0258  0.1489  0.3004
    1W        W61758   3.774   4.964   9.360  0.0298  0.3308  0.1723
    1W        W61759  29.690  17.992   6.850  0.1270 -0.1275  0.0700
    1W        W61760  22.029  26.045   2.292  0.2646  0.1374  0.0918
    1W        W61761   5.276  29.306   8.208 -0.1755 -0.3287 -0.0291
    1W        W61762  14.506  25.418   6.489  0.2333 -0.0147  0.1732
    1W        W61763  25.040  18.670   7.459 -0.2502 -0.4326  0.1742
    1W        W61764  12.024   1.659   0.407 -0.1180  0.1613  0.1969
    1W        W61765  25.834   9.011   1.869  0.0521 -0.1425  0.1379
    1W        W61766   1.106  26.742   7.488  0.0364  0.1640  0.0125
    1W        W61767   9.196  26.783   8.585  0.1189 -0.0264 -0.3453
    1W        W61768   8.303  18.139   0.879  0.2136  0.0275  0.0813
    1W        W61769  29.305  25.383   8.105  0.1914 -0.2469 -0.0994
    1W        W61770   0.231  14.444   8.919 -0.1039  0.0867  0.1802
    1W        W61771  15.489  25.441   2.581  0.2519 -0.2642 -0.1361
    1W        W61772  22.901  29.266   7.508  0.0024  0.0784  0.0345
    1W        W61773   0.076   4.049   8.135  0.0808  0.3193 -0.2435
    1W        W61774   0.288  11.052   7.003 -0.0054  0.0166 -0.0149
    1W        W61775  11.851  10.405   7.374  0.0816 -0.1882 -0.0162
    1W        W61776  13.628   5.087   1.049  0.1354  0.0760 -0.2431
    1W        W61777  22.739   3.443   7.436 -0.0064  0.0511  0.0419
    1W        W61778   3.146  11.926   8.295  0.4360  0.0315 -0.2618
    1W        W61779   6.633  27.802   2.185  0.0553 -0.0422  0.0834
    1W        W61780   9.135  20.635   1.460  0.1082  0.1743 -0.1534
    1W        W61781  18.910  16.047   1.059  0.0582 -0.1972 -0.1006
    1W        W61782  18.986  26.898   9.126  0.0545 -0.0217  0.1993
    1W        W61783  27.781  27.176   3.224  0.1221 -0.1295  0.1458
    1W        W61784  24.013  15.527   0.440 -0.2613 -0.1800  0.1288
    1W        W61785  12.752   1.622   7.752 -0.3545  0.0073 -0.0808
    1W        W61786  19.108  17.349   0.204  0.1051 -0.3473  0.1201
    1W        W61787  17.447   3.297   2.707  0.2962 -0.1661  0.1523
    1W        W61788  23.345  19.412   6.693  0.1946 -0.1193 -0.3166
    1W        W61789   5.646  20.351   0.656  0.1648 -0.2074 -0.3767
    1W        W61790  16.344   6.390   0.798  0.0117  0.0989  0.0448
    1W        W61791  29.820   1.607   1.669  0.1597 -0.0718  0.3516
    1W        W61792  26.555  28.699   8.175  0.1316 -0.0934 -0.0643
    1W        W61793   0.179   2.137   3.455  0.0653  0.0694 -0.1161
    1W        W61794  29.302  10.970   1.203  0.1086  0.2029  0.0406
    1W        W61795   0.070  25.895   6.791 -0.1386 -0.1682 -0.0126
    1W        W61796  20.086  17.680   2.019  0.0695  0.1063  0.0505
    1W        W61797  18.110  15.620   8.000 -0.0183  0.0162 -0.2566
    1W        W61798  27.854   8.702   2.327  0.2751 -0.3976  0.0101
    1W        W61799  18.663  19.882   0.491 -0.2089  0.1760  0.1333
    1W        W61800  24.339  22.021   3.000 -0.0465  0.3729 -0.0735
    1W        W61801   3.056  24.526   1.626 -0.0534 -0.1233 -0.1174
    1W        W61802   2.058  20.067   1.308 -0.3489 -0.0011  0.0267
    1W        W61803   2.036   8.470   1.097 -0.0343  0.1785  0.0646
    1W        W61804  10.670   3.178   7.009 -0.0043  0.0042 -0.3258
    1W        W61805  10.117  26.001   7.381 -0.0445 -0.1823 -0.4950
    1W        W61806  15.290  21.423   9.020 -0.1063 -0.1242  0.1088
    1W        W61807   5.856   0.859   2.070  0.3316  0.2255 -0.0604
    1W        W61808  15.971   3.933   0.137  0.1163  0.1573  0.2423
    1W        W61809  23.737   0.322   7.846 -0.1407  0.2317 -0.1504
    1W        W61810   0.979   0.444   8.252 -0.1328 -0.1495  0.1155
    1W        W61811  13.237  16.700   7.176 -0.2662  0.0028  0.0521
    1W        W61812  24.864  15.523   8.505 -0.1008 -0.1882 -0.1934
    1W        W61813   3.032  17.656   7.580 -0.1840  0.2779  0.1673
    1W        W61814  20.587  10.705   0.520  0.0406  0.2542  0.3063
    1W        W61815   0.964   8.709   1.803 -0.1865  0.3432  0.0547
    1W        W61816  16.990   8.432   2.903  0.1226  0.0232  0.3144
    1W        W61817  26.557  18.939   0.577 -0.2541  0.0676 -0.2427
    1W        W61818  15.781   6.683   8.341  0.2070  0.3099 -0.4977
    1W        W61819  26.692   7.131   0.087 -0.3021 -0.1809 -0.3029
    1W        W61820  29.639  29.471   6.939 -0.2007 -0.1079 -0.0895
    1W        W61821  14.153   1.080   3.497  0.1184  0.1259  0.0749
    1W        W61822   2.088  11.256   2.250 -0.3696  0.1884  0.1039
    1W        W61823  12.509   8.683   0.482  0.1307 -0.2476 -0.3371
    1W        W61824  27.939  13.830   7.452  0.0076  0.0264 -0.1330
    1W        W61825  14.005   5.074   3.542  0.2292 -0.1535 -0.1885
    1W        W61826   2.575  27.152   0.876  0.1422 -0.1082 -0.1689
    1W        W61827  25.267  23.687   8.355 -0.0160 -0.2903  0.2316
    1W        W61828   5.356  28.680   2.276  0.1108  0.0012  0.1568
    1W        W61829   0.391  21.980   7.241 -0.0813  0.0628 -0.2560
    1W        W61830   0.947  18.815   6.025  0.1018  0.1463 -0.1986
    1W        W61831  15.293  15.400   1.389  0.0936  0.2994 -0.0247
    1W        W61832   1.960   8.877   1.743  0.0169  0.1083  0.0555
    1W        W61833   1.789   8.225   6.315 -0.1314  0.1872  0.0831
    1W        W61834  21.932  17.456   7.773  0.1401  0.0688  0.3009
    1W        W61835  25.365  14.054   8.475 -0.0148 -0.2600 -0.0863
    1W        W61836  24.103   2.460   1.224 -0.0319  0.0475  0.1086
    1W        W61837  13.509   1.974   8.426 -0.2470 -0.0336 -0.1135
    1W        W61838   4.949  15.776   1.462  0.1664  0.2899 -0.0576
    1W        W61839  14.006  19.309   8.188 -0.0349 -0.0054  0.1078
    1W        W61840  19.513  29.996   1.548 -0.1724  0.2217 -0.0514
    1W        W61841  30.108  11.470   1.740 -0.2035 -0.3576 -0.0939
    1W        W61842  12.870  27.168   2.081 -0.1397  0.3250  0.3067
    1W        W61843  16.301  13.149   2.235  0.0727 -0.0101  0.2160
    1W        W61844   5.494  27.139   7.594 -0.0285 -0.2092  0.2210
    1W        W61845   5.265  23.803   1.752 -0.2242 -0.0865  0.3467
    1W        W61846   7.427  17.312   6.874  0.1337 -0.0042  0.0247
    1W        W61847  15.224  11.059   1.408  0.0410  0.0375 -0.2273
    1W        W61848  23.668  17.847   8.151  0.2546  0.2026  0.0820
    1W        W61849  20.615  12.821   2.075  0.1795 -0.0655 -0.0729
    1W        W61850   1.202  25.386   1.827  0.0592  0.0848 -0.1429
    1W        W61851  24.765  22.319   0.357  0.2271  0.2276 -0.2911
    1W        W61852  10.305  26.035   1.609 -0.0203  0.1032  0.0896
    1W        W61853  16.201  26.839   8.725  0.0653 -0.1622  0.1301
    1W        W61854  28.729   7.216   1.543  0.1589 -0.1524  0.1740
    1W        W61855  13.998  16.888   1.860  0.0093  0.0341  0.0459
    1W        W61856  22.868  28.273   6.997  0.1111 -0.4380 -0.1395
    1W        W61857  14.020   0.474   1.143 -0.1464  0.0138  0.1263
    1W        W61858  16.681  13.703   8.848  0.1125  0.1247 -0.0502
    1W        W61859   0.136  23.823   0.035  0.1398  0.2293  0.2162
    1W        W61860  17.140  27.622   7.946  0.1185 -0.3030  0.1349
    1W        W61861  18.909   0.274   6.761  0.1310 -0.0341 -0.0545
    1W        W61862  29.068  15.613   6.931  0.0542  0.0930  0.3635
    1W        W61863  21.465  21.780   6.183  0.2512 -0.1959 -0.1684
    1W        W61864  11.177   9.677   1.774 -0.0290  0.0415 -0.1166
    1W        W61865  24.339  13.143   1.183  0.2745  0.0493 -0.0333
    1W        W61866  20.071   1.580   1.314  0.0913  0.0549 -0.2041
    1W        W61867  14.157   1.162   2.606  0.2033 -0.0324  0.0907
    1W        W61868  24.505  16.579   0.676 -0.0494  0.0799 -0.1714
    1W        W61869  28.314  25.904   9.323  0.1444  0.2372 -0.0460
    1W        W61870  15.910   4.130   7.420  0.0025  0.0349 -0.1640
    1W        W61871   3.716  19.750   6.259  0.2635  0.0922  0.0391
    1W        W61872   2.770  23.113   7.526 -0.3646 -0.1657  0.1107
    1W        W61873   3.070  16.133   1.400  0.0279 -0.3305 -0.1508
    1W        W61874  24.831   2.287   7.623  0.0807 -0.1654 -0.0257
    1W        W61875  10.882  25.369   1.539 -0.0321 -0.1675  0.0688
    1W        W61876  23.594   7.689   1.201 -0.0150  0.1456  0.2012
    1W        W61877  14.488  15.732   6.797 -0.0361 -0.2887  0.0676
    1W        W61878  12.732  26.449   8.456 -0.0477  0.2412  0.1025
    1W        W61879  24.469  29.174   9.261  0.0406 -0.0981  0.2893
    1W        W61880  16.488   0.626   0.137  0.0356  0.4448  0.2241
    1W        W61881  10.512   0.569   0.532 -0.3039 -0.0812  0.0555
    1W        W61882   7.317   0.229   8.870  0.2173  0.0286 -0.3982
    1W        W61883   0.497  25.706   0.414 -0.0191  0.0729 -0.2351
    1W        W61884  23.650  19.738   5.886 -0.3572 -0.0214 -0.0191
    1W        W61885  29.535  22.779   2.517  0.0188  0.1184  0.0300
    1W        W61886  12.931   4.647   2.771  0.2667 -0.0136  0.2941
    1W        W61887  15.416  14.693   0.904  0.0614 -0.3254  0.1820
    1W        W61888  21.469   5.584   7.235 -0.2286 -0.0137  0.1125
    1W        W61889   5.807   3.792   6.658  0.1258  0.1589 -0.2738
    1W        W61890   2.563  23.108   5.578 -0.1597  0.0909 -0.0613
    1W        W61891   2.299   6.415   6.528 -0.1402 -0.1362 -0.1288
    1W        W61892   8.537   7.529   0.366  0.3385  0.0633 -0.0395
    1W        W61893   2.644  11.849   2.223  0.1183  0.0144 -0.1064
    1W        W61894   0.578   9.154   0.689 -0.3980 -0.1725 -0.0264
    1W        W61895  26.300  13.509   5.608  0.1939 -0.0381 -0.0649
    1W        W61896   1.107  17.711   7.188  0.0666 -0.3578  0.0072
    1W        W61897  25.281  10.013   0.499 -0.3241 -0.1033 -0.0405
    1W        W61898   2.614  25.230   1.826  0.1502 -0.3283 -0.1151
    1W        W61899  11.893   7.017   3.323 -0.1947  0.0905 -0.0793
    1W        W61900  14.650  25.729   1.297 -0.2464  0.0132  0.0589
    1W        W61901   2.786  10.969   8.482  0.2548 -0.0121 -0.2271
    1W        W61902  18.338  15.028   0.090 -0.1552 -0.1669  0.0405
    1W        W61903  23.680  11.936   2.143 -0.1250 -0.0556  0.3650
    1W        W61904  27.451  18.999   0.969 -0.3134  0.0820  0.0330
    1W        W61905  23.362  25.674   1.467 -0.0364  0.0282  0.1661
    1W        W61906   7.885  27.473   2.873 -0.2089 -0.2777  0.1861
    1W        W61907   6.382  27.853   2.636 -0.1464  0.1580  0.3783
    1W        W61908  22.731  22.631   6.177  0.1179  0.3591  0.0136
    1W        W61909  23.731  21.067   0.938 -0.1621 -0.1007  0.1851
    1W        W61910  28.630   7.227   8.187  0.1495  0.0681  0.2423
    1W        W61911  17.085  24.076   8.860 -0.1089 -0.0863  0.2735
    1W        W61912  25.026  21.290   7.495  0.0420  0.0204  0.1107
    1W        W61913  19.172  23.188   0.371  0.1853  0.2004 -0.0127
    1W        W61914  19.016  16.896   7.747  0.1944  0.0214 -0.1416
    1W        W61915   1.595   5.778   6.550  0.2255  0.2652  0.1363
    1W        W61916  17.025  15.321   2.247 -0.0599 -0.0384 -0.0532
    1W        W61917  14.604  21.471   8.300 -0.2016 -0.0594  0.4563
    1W        W61918   1.473  29.617   2.116 -0.0070 -0.0522 -0.4229
    1W        W61919  24.570  21.925   0.082 -0.1619  0.1689 -0.1319
    1W        W61920  26.059   8.546   7.009 -0.0080 -0.0843 -0.1102
    1W        W61921   5.370  12.484   2.643 -0.1006  0.1272 -0.2119
    1W        W61922  29.896   4.359   8.363 -0.0811 -0.0751  0.0272
    1W        W61923   2.786  29.735   6.922  0.0462  0.0764 -0.4105
    1W        W61924  24.406   2.057   1.307 -0.3362 -0.3401  0.1391
    1W        W61925  19.194  10.561   0.491  0.1898 -0.0526  0.0637
    1W        W61926  26.866  14.954   7.731  0.0550  0.1021  0.1876
    1W        W61927  29.975   5.575   6.908  0.0527  0.4964  0.2752
    1W        W61928   8.671  19.315   0.853  0.2864 -0.2122 -0.0175
    1W        W61929  12.303  21.054   0.239  0.0899 -0.1381  0.0555
    1W        W61930  16.158  26.282   8.399 -0.0363  0.1267  0.1345
    1W        W61931  11.411  11.357   3.249  0.1303  0.1140 -0.2165
    1W        W61932   1.019  23.136   1.245 -0.3076 -0.0472  0.3380
    1W        W61933  23.766  10.715   2.774  0.0267  0.2537 -0.1520
    1W        W61934  27.711   4.059   1.757  0.3371 -0.1116 -0.4204
    1W        W61935  27.536   3.623   0.772 -0.0152  0.2040 -0.0218
    1W        W61936  15.948  28.176   8.880 -0.0577 -0.0815 -0.3202
    1W        W61937   2.095   1.772   9.374 -0.0585  0.0545  0.0988
    1W        W61938   9.130   9.362   8.291  0.0592 -0.1156 -0.0157
    1W        W61939  28.089  19.001   1.279  0.2211  0.0422 -0.1450
    1W        W61940  28.729   3.028   0.002 -0.0883  0.3520 -0.3066
    1W        W61941  12.916   8.723   1.395 -0.0365 -0.0091 -0.0524
    1W        W61942   4.696   6.142   6.998 -0.5450 -0.2069 -0.1307
    1W        W61943   4.558   3.913   7.488  0.0482 -0.0631  0.5369
    1W        W61944   7.412  25.614   8.701  0.1535  0.2700  0.1152
    1W        W61945   6.055  16.270   7.599 -0.1724  0.3589  0.2437
    1W        W61946   7.990   8.206   0.905  0.1234  0.3013  0.0550
    1W        W61947  11.139  10.810   8.583  0.1394  0.0113  0.2367
    1W        W61948  15.661  10.016   1.564 -0.1978  0.0358  0.1405
    1W        W61949   4.947  20.403   7.619  0.0771 -0.0611 -0.2536
    1W        W61950   4.193   4.798   9.136 -0.1697  0.3142  0.0760
    1W        W61951   6.964  12.576   8.288 -0.1611 -0.0325 -0.0631
    1W        W61952   4.400  10.115   6.281  0.0961 -0.2990  0.1013
    1W        W61953  25.243  29.724   2.880  0.2094 -0.2626  0.2439
    1W        W61954   3.171  23.999   6.328 -0.3387 -0.4582  0.1632
    1W        W61955  28.454   1.049   7.579 -0.4200  0.0547 -0.1034
    1W        W61956  12.829   2.981   9.077  0.0576 -0.3241  0.2674
    1W        W61957  26.620  29.810   2.504 -0.3686 -0.0891  0.2506
    1W        W61958  21.688  20.827   6.465  0.0437  0.0466  0.0430
    1W        W61959  20.716   1.165   1.545 -0.0624  0.1133  0.1620
    1W        W61960  14.489  27.192   0.641 -0.0818 -0.1001  0.1494
    1W        W61961   6.149   5.405   0.927  0.2481 -0.1458 -0.1800
    1W        W61962   2.613  28.275   1.994 -0.1747 -0.1142 -0.0745
    1W        W61963  26.769  28.314   7.325  0.2702 -0.2904  0.0709
    1W        W61964   0.436  22.064   9.163  0.1420  0.1388  0.0067
    1W        W61965  26.286  13.351   7.354 -0.0498  0.0403  0.0571
    1W        W61966  25.082  28.430   2.232  0.0272 -0.1478  0.3028
    1W        W61967   7.537  13.280   1.775 -0.0513  0.0603  0.1772
    1W        W61968  17.748   6.523   3.659 -0.0603 -0.2265 -0.2126
    1W        W61969  29.205  10.337   1.343 -0.4057  0.0573  0.0838
    1W        W61970  22.549   1.664   6.785 -0.0723  0.1424 -0.0633
    1W        W61971   1.077   5.227   8.113 -0.0488  0.1407  0.0626
    1W        W61972  24.671  15.453   6.837 -0.3385 -0.0805  0.1501
    1W        W61973  27.742  10.589   7.083  0.0184  0.0125 -0.1122
    1W        W61974  22.656  13.664   7.101 -0.0989  0.2919 -0.0314
    1W        W61975  20.975  25.254   2.266  0.2014  0.2458  0.1500
    1W        W61976  15.264   8.816   2.755  0.1593 -0.3581 -0.2100
    1W        W61977  13.802  25.677   1.870  0.1464 -0.1564  0.2881
    1W        W61978  19.566   9.449   0.286  0.1282  0.0348 -0.0040
    1W        W61979   6.888  25.563   8.664 -0.0681  0.3430 -0.2014
    1W        W61980  11.482  16.028   0.509  0.0522  0.2135 -0.1978
    1W        W61981   3.121  23.014   1.618  0.3014 -0.1965  0.0260
    1W        W61982  23.517  23.673   9.060  0.1520  0.0599 -0.0190
    1W        W61983   1.494  22.802   1.179  0.1514 -0.1850 -0.1341
    1W        W61984  10.327   2.228   8.663 -0.3376  0.2010  0.2920
    1W        W61985   4.567  23.546   7.291  0.0276  0.0681  0.0447
    1W        W61986  23.082   9.590   6.243  0.0850 -0.0546 -0.4499
    1W        W61987  10.088  23.319   7.182  0.4203  0.1466  0.0535
    1W        W61988  16.238  11.695   9.297  0.1278  0.3193  0.0547
    1W        W61989   4.429  22.956   1.149  0.2390 -0.0307 -0.1251
    1W        W61990   0.632  28.729   9.071  0.0229 -0.1236 -0.0395
    1W        W61991   1.906  20.311   7.521  0.1197  0.1014 -0.1374
    1W        W61992   8.505  22.001   8.798  0.1089 -0.0886 -0.1665
    1W        W61993  14.507   0.603   0.961  0.1043  0.0196 -0.1066
    1W        W61994  19.534   4.766   0.481 -0.0978 -0.0196  0.0232
    1W        W61995  29.136  22.130   0.267 -0.1100 -0.1161 -0.0449
    1W        W61996  18.663   9.847   7.993 -0.0613 -0.0491  0.1135
    1W        W61997   2.105  15.852   0.580  0.1520  0.0109 -0.1403
    1W        W61998  24.683  17.471   1.770 -0.0059 -0.2089 -0.0741
    1W        W61999   3.635   1.314   2.125 -0.0335 -0.0028  0.1529
    1W        W62000   3.148  25.560   7.980 -0.2597  0.0993 -0.2849
    1W        W62001  28.430  16.195   0.965  0.2367 -0.0550  0.2678
    1W        W62002   7.391  29.763   2.795  0.3328 -0.1559 -0.0163
    1W        W62003  26.312  25.210   8.473 -0.0559 -0.2052  0.1865
    1W        W62004  20.199  24.897   7.099  0.0679 -0.2725 -0.2083
    1W        W62005  21.864  24.158   7.032 -0.0186  0.0714 -0.1998
    1W        W62006   0.455  26.604   8.629  0.1140 -0.1439 -0.1045
    1W        W62007  23.833  15.483   0.993 -0.2229 -0.1747  0.0694
    1W        W62008   6.011   4.626   7.114  0.3135 -0.1816  0.1159
    1W        W62009  15.903  11.166   7.526  0.0598 -0.1086  0.0318
    1W        W62010  11.195  26.016   6.386 -0.0060 -0.0126  0.0404
    1W        W62011  11.923  29.540   2.198 -0.1234 -0.0813 -0.0790
    1W        W62012  16.009   1.619   1.961  0.0200 -0.0490  0.2919
    1W        W62013  23.940  23.003   1.850 -0.1577 -0.3218 -0.0056
    1W        W62014   5.675  22.166   7.873  0.1192  0.1255  0.0086
    1W        W62015   8.578   4.270   6.747 -0.2057 -0.3617  0.0000
    1W        W62016  27.723   2.300   0.641 -0.2733  0.0367 -0.1595
    1W        W62017  15.074  15.532   0.103  0.0626  0.0722 -0.1528
    1W        W62018   0.724   6.617   6.325 -0.0927  0.3609  0.2151
    1W        W62019   7.482  26.356   1.919 -0.3012  0.0403  0.2145
    1W        W62020  26.499  19.342   9.187  0.1370  0.0461  0.2117
    1W        W62021  22.366  10.028   3.064  0.0195 -0.2430 -0.1540
    1W        W62022  29.545  26.966   2.028 -0.0315  0.0784 -0.1160
    1W        W62023  21.916  19.975   6.561 -0.1799 -0.0637 -0.0738
    1W        W62024   3.776   0.611   7.995 -0.0428  0.2737 -0.0835
    1W        W62025   2.901   1.620   8.967 -0.0739 -0.1329 -0.2046
    1W        W62026   1.944   2.806   0.264  0.1572  0.0055 -0.1012
    1W        W62027  17.415  14.214   0.898  0.0513 -0.0919  0.0648
    1W        W62028  21.990  13.225   6.666 -0.0965  0.0947 -0.1721
    1W        W62029   2.640   8.687   9.051 -0.1324 -0.0351 -0.3628
    1W        W62030   2.211   5.811   2.170 -0.3242  0.1964  0.1383
    1W        W62031   8.552   3.187   8.157 -0.2194 -0.2213  0.1501
    1W        W62032   8.803   5.685   0.780  0.1839  0.0945  0.3934
    1W        W62033   1.828  18.642   7.980 -0.1053 -0.0774 -0.1265
    1W        W62034   6.465  22.874   1.117 -0.1276  0.0020  0.4394
    1W        W62035  18.558  14.729   1.097  0.1947 -0.4345 -0.0120
    1W        W62036  11.189  11.215   2.055  0.0409  0.0470 -0.0313
    1W        W62037  16.614   8.237   0.099  0.2428  0.1119  0.2041
    1W        W62038  11.139   6.000   2.914  0.0653  0.1229  0.1961
    1W        W62039  10.730  16.810   6.626  0.1902 -0.1670 -0.1258
    1W        W62040   3.618   8.714   1.981 -0.0132 -0.1751  0.3076
    1W        W62041  30.035   6.140   8.315 -0.1902 -0.1794 -0.2812
    1W        W62042  27.885  19.610   8.200  0.0371 -0.1338 -0.1358
    1W        W62043  13.107  20.320   1.994 -0.3330  0.2595  0.0747
    1W        W62044  26.910  22.234   8.081  0.1433 -0.1028  0.0380
    1W        W62045   1.790   4.848   0.100 -0.0877  0.0873  0.0946
    1W        W62046   6.944  29.917   2.369 -0.0335  0.0816  0.1171
    1W        W62047   4.533  20.385   0.155  0.0739 -0.0705 -0.0715
    1W        W62048  16.582   4.176   2.776 -0.0678  0.0247 -0.2103
    1W        W62049   9.403   9.798   8.501 -0.3050  0.0454  0.0114
    1W        W62050  18.303  23.837   0.008  0.0369  0.0043  0.2920
    1W        W62051  19.127  21.051   8.393 -0.1069 -0.2137  0.1416
    1W        W62052  17.825  10.910   9.376  0.0444 -0.1208 -0.1805
    1W        W62053  21.926   8.797   7.694 -0.0371 -0.0700 -0.2621
    1W        W62054  23.375   7.855   0.705 -0.2251  0.0729  0.0532
    1W        W62055  24.092  29.275   8.478  0.2150  0.1244  0.0081
    1W        W62056  24.412  14.724   8.647  0.1360  0.1955 -0.1146
    1W        W62057  26.867  13.322   7.230  0.0358 -0.1909  0.3416
    1W        W62058  11.095  10.447   8.149  0.1745  0.4685  0.0959
    1W        W62059   9.568  29.625   1.257 -0.0829 -0.2200  0.0932
    1W        W62060  22.753   5.455   1.387 -0.0217  0.0103 -0.2142
    1W        W62061  24.119  28.537   1.879  0.1924  0.0493  0.0404
    1W        W62062  19.804   1.299   1.880 -0.2002  0.2022 -0.0374
    1W        W62063  17.657   6.261   9.023 -0.1959  0.1382 -0.0710
    1W        W62064   5.969   1.166   3.325 -0.0604  0.2642  0.2893
    1W        W62065  21.003   1.874   1.802 -0.1584 -0.1863  0.1003
    1W        W62066   7.339  22.068   9.132 -0.1268 -0.2067 -0.1412
    1W        W62067  23.929   6.751   1.475 -0.1273  0.0530  0.0396
    1W        W62068  20.110  19.339   6.810 -0.1217  0.4988 -0.0349
    1W        W62069  18.741   4.946   3.340 -0.0128  0.0862 -0.1756
    1W        W62070  24.684  16.325   7.841 -0.0429 -0.0954 -0.1306
    1W        W62071  21.017   8.781   7.288  0.1155 -0.0693 -0.0118
    1W        W62072  23.503  25.883   7.213 -0.3018  0.1272  0.1732
    1W        W62073  27.574  13.252   6.823  0.0002 -0.2361  0.2983
    1W        W62074   6.688  25.159   8.884 -0.0349 -0.0733  0.1221
    1W        W62075   7.996   8.994   1.292  0.1848  0.0541  0.4827
    1W        W62076  28.293  23.386   2.701  0.2118 -0.4989  0.1924
    1W        W62077  19.987  15.162   9.367 -0.2596 -0.3368 -0.0380
    1W        W62078   8.640   9.169   9.314  0.1106  0.1055  0.1827
    1W        W62079  15.269  11.860   7.671 -0.0551 -0.1443  0.3621
    1W        W62080   4.984   4.081   7.811  0.0304 -0.3097 -0.0325
    1W        W62081  22.431  29.076   0.085 -0.0766 -0.1085 -0.0101
    1W        W62082  22.233  28.237   8.403  0.1017  0.0582 -0.1268
    1W        W62083  22.652  29.602   9.148  0.1548  0.3649  0.2501
    1W        W62084  13.057  10.483   0.829  0.3445 -0.1415 -0.2682
    1W        W62085  16.864  25.205   6.950  0.0234  0.0002 -0.1217
    1W        W62086  12.868  13.815   8.965  0.0927  0.1171 -0.0266
    1W        W62087  15.482  28.052   7.977  0.0234  0.2984 -0.1632
    1W        W62088  28.869  22.489   7.536 -0.1387 -0.1103  0.1365
    1W        W62089  17.562  22.770   7.236 -0.1105  0.0313 -0.1722
    1W        W62090  18.080  13.795   6.496  0.2067  0.0102  0.2019
    1W        W62091   8.166  16.618   8.954  0.1682 -0.3712 -0.1193
    1W        W62092  27.069   3.495   8.799 -0.0181 -0.1286  0.0708
    1W        W62093  27.237   9.013   6.529 -0.1633 -0.0636 -0.1825
    1W        W62094  20.665  29.320   1.750  0.2425 -0.0472  0.0895
    1W        W62095  21.752   1.793   8.321  0.3524 -0.1133  0.1749
    1W        W62096   8.084   8.491   2.756 -0.1431  0.2496 -0.1090
    1W        W62097  27.062  29.135   9.275  0.0760 -0.1297 -0.0704
    1W        W62098  11.371   0.850   2.101  0.0697 -0.1644  0.0807
    1W        W62099  18.029  27.086   9.084  0.0233 -0.0246 -0.0058
    1W        W62100  11.522  22.098   9.178  0.1512 -0.0262 -0.0046
    1W        W62101  20.754  17.697   8.471  0.0028  0.2996 -0.3453
    1W        W62102  22.174   8.336   7.587 -0.2425 -0.2666 -0.1311
    1W        W62103  12.613  10.696   3.880 -0.2215 -0.1132 -0.3596
    1W        W62104  10.700  25.079   9.239 -0.1388  0.0914  0.2500
    1W        W62105  23.554   5.410   7.855  0.0505 -0.5072  0.4286
    1W        W62106  10.193  29.504   8.389 -0.0362 -0.1627 -0.2145
    1W        W62107  19.638   4.848   2.100 -0.1927  0.1430 -0.3135
    1W        W62108   3.641  26.192   1.441 -0.0581 -0.1478  0.0111
    1W        W62109   5.276   6.407   1.593  0.0825  0.1395 -0.2478
    1W        W62110  13.994  28.948   1.754  0.2607  0.1794 -0.0829
    1W        W62111  13.947  16.645   2.252  0.1044  0.0808 -0.0050
    1W        W62112   6.645   3.312   6.849  0.0269  0.0796 -0.1732
    1W        W62113  17.920   5.091   2.371 -0.0058 -0.0059 -0.1311
    1W        W62114  16.573  20.434   7.478  0.0076  0.1322 -0.0775
    1W        W62115  27.470  11.480   1.599  0.0247  0.0514 -0.2210
    1W        W62116  22.764  13.917   8.362  0.0223  0.2164 -0.0607
    1W        W62117  24.934  17.021   0.665 -0.0738 -0.1840 -0.4173
    1W        W62118   4.092   4.245   7.801  0.1495  0.0050 -0.1548
    1W        W62119  17.852  26.124   2.821 -0.1681  0.2186 -0.2403
    1W        W62120  17.276  10.157   1.446  0.0818 -0.1998 -0.0969
    1W        W62121  27.989  10.129   6.362  0.3355 -0.1688 -0.2391
    1W        W62122  17.647   9.047   8.950 -0.3471 -0.0319  0.3217
    1W        W62123  12.384  23.886   0.270 -0.0605  0.0534 -0.0732
    1W        W62124  21.609  25.400   8.294 -0.0732 -0.0302  0.4011
    1W        W62125   5.212  15.712   1.885 -0.0392 -0.3158 -0.0650
    1W        W62126   6.142  27.078   1.772  0.1017 -0.0062 -0.0185
    1W        W62127   4.293   3.080   7.122 -0.1232 -0.0736 -0.2658
    1W        W62128  10.929   4.479   2.644 -0.0256 -0.1099 -0.2410
    1W        W62129   4.192  24.221   7.253 -0.0362 -0.0600 -0.0886
    1W        W62130   5.758  18.443   5.491  0.3062 -0.0143  0.2292
    1W        W62131  20.127   0.723   9.050  0.1060 -0.0549 -0.3060
    1W        W62132  16.338  25.242   8.074 -0.0034  0.1253 -0.1212
    1W        W62133  12.014   4.760   8.086  0.3969  0.1383  0.0218
    1W        W62134  16.514  24.548   2.732 -0.1854  0.0079  0.1447
    1W        W62135   6.547  20.960   7.477  0.1604 -0.1903  0.0256
    1W        W62136  19.778  14.271   0.110 -0.0859  0.0826 -0.4221
    1W        W62137  27.223  14.397   1.980 -0.4845 -0.1848  0.0284
    1W        W62138  17.328   9.247   7.553  0.1982 -0.1958 -0.0266
    1W        W62139   1.744   1.631   8.369 -0.1538  0.0947 -0.1425
    1W        W62140  18.974  25.504   2.460 -0.1854  0.1316 -0.2670
    1W        W62141  25.053  19.578   8.270 -0.0341  0.0004 -0.2245
    1W        W62142  26.000   5.279   3.281  0.4508 -0.0067 -0.0674
    1W        W62143  15.799  13.933   0.940  0.0723  0.1309 -0.0102
    1W        W62144  28.460   6.357   2.185 -0.1090 -0.2367 -0.5084
    1W        W62145   0.819   7.391   0.390 -0.1349  0.2220 -0.0727
    1W        W62146  20.348  22.831   2.739 -0.1952  0.0768 -0.1125
    1W        W62147  29.789  25.877   2.703  0.0626  0.3708 -0.0373
    1W        W62148  14.315   9.356   2.212 -0.3977  0.0134 -0.1104
    1W        W62149  14.707   8.947   7.558 -0.0084  0.1002 -0.1307
    1W        W62150   4.759  11.570   7.208 -0.0556 -0.0403  0.1120
    1W        W62151   7.506   5.129   0.503 -0.2954  0.2861 -0.2565
    1W        W62152  21.111   3.342   6.962 -0.0015 -0.0772 -0.2819
    1W        W62153  19.198  26.081   2.416 -0.3881  0.2637  0.1963
    1W        W62154   5.708   4.539   1.476  0.0252 -0.3466  0.1109
    1W        W62155  24.623   4.186   8.983  0.0554 -0.0106  0.1387
    1W        W62156  20.409   3.833   6.737  0.1802 -0.4814 -0.0581
    1W        W62157  11.067  11.826   1.924 -0.0274 -0.1476 -0.1706
    1W        W62158  24.534  24.946   8.775  0.0063  0.0172 -0.0658
    1W        W62159  21.417  13.720   1.247 -0.0393 -0.2538  0.2373
    1W        W62160  17.677   6.446   7.739  0.2232  0.1499 -0.1225
    1W        W62161   5.248  23.798   6.570 -0.1494 -0.1516  0.0723
    1W        W62162  20.318   6.443   1.730  0.1959  0.3256  0.1461
    1W        W62163  20.539   5.675   8.772 -0.1540 -0.2942 -0.0663
    1W        W62164  20.199   5.251   0.107 -0.0035  0.3612 -0.2261
    1W        W62165  23.738  24.614   8.233 -0.3384 -0.0602 -0.3204
    1W        W62166  25.033  14.566   7.101 -0.0133 -0.1525  0.0477
    1W        W62167  18.514  27.728   0.797  0.2425  0.0664  0.2188
    1W        W62168   5.681   7.851   0.401  0.0009 -0.2319  0.0790
    1W        W62169  21.480  12.699   1.721  0.0335 -0.1529  0.1754
    1W        W62170  14.529  29.820   2.538 -0.1201  0.0807  0.0350
    1W        W62171   9.008  12.474   3.250  0.3501 -0.0774 -0.0626
    1W        W62172  14.369   2.424   8.754 -0.1893 -0.1148 -0.1507
    1W        W62173  10.040  20.823   7.976  0.1929 -0.1064  0.2323
    1W        W62174   0.860  26.469   1.907 -0.0776 -0.0896  0.2978
    1W        W62175  28.791  14.413   5.289  0.1420 -0.1625 -0.0568
    1W        W62176   3.249  22.939   6.613  0.1810  0.0462  0.0098
    1W        W62177  16.249  29.795   0.510 -0.3463 -0.0157 -0.2633
    1W        W62178  11.151   5.806   0.076  0.0344  0.0361 -0.2477
    1W        W62179  10.158  27.666   0.944 -0.1321  0.0571  0.1519
    1W        W62180   0.585   0.508   7.949 -0.2305  0.1079 -0.0444
    1W        W62181  23.942  23.306   6.640 -0.0361  0.1622  0.2528
    1W        W62182  19.849  17.286   8.476 -0.0048 -0.0760  0.0550
    1W        W62183  25.878  20.441   1.533 -0.1650  0.3557  0.1465
    1W        W62184  27.034  16.524   9.285  0.0466  0.0731 -0.2350
    1W        W62185  29.670   6.404   5.673 -0.2894 -0.3213  0.0008
    1W        W62186   0.176  12.396   1.573  0.0326  0.3864  0.1721
    1W        W62187  30.147  26.210   0.753 -0.0851 -0.1597  0.5314
    1W        W62188   6.675   4.463   2.164  0.2161 -0.1564 -0.2863
    1W        W62189   7.192  18.173   1.329 -0.0737 -0.1574 -0.1823
    1W        W62190  29.718   2.287   2.901  0.2473 -0.3259  0.0413
    1W        W62191  17.048   9.351   8.370  0.0365  0.0602 -0.0818
    1W        W62192   3.590   3.790   8.215 -0.1298 -0.1065  0.0827
    1W        W62193   7.252  19.048   7.674  0.0621 -0.1117 -0.3569
    1W        W62194   0.513   7.760   7.937  0.1332 -0.0132  0.2037
    1W        W62195  15.751  29.380   0.066 -0.1606 -0.1287 -0.0791
    1W        W62196  14.593  20.032   0.633  0.1864  0.0909  0.0724
    1W        W62197   0.046  11.406   1.183  0.5446  0.2016  0.1978
    1W        W62198  16.646  24.463   8.051  0.0083  0.0657  0.4609
    1W        W62199  19.195  15.318   9.011 -0.0110  0.0400 -0.0277
    1W        W62200   0.530  13.637   7.048  0.0486 -0.1170 -0.0501
    1W        W62201  27.399  23.828   0.369  0.0125  0.1009 -0.1170
    1W        W62202   5.507   4.614   3.481 -0.2170 -0.1638  0.0716
    1W        W62203   1.292  26.688   1.790 -0.1484  0.2623  0.0999
    1W        W62204   8.162   7.932   7.548  0.0671 -0.1141 -0.0938
    1W        W62205  10.467  17.469   0.840 -0.1882 -0.2053  0.2589
    1W        W62206  13.533  19.252   6.852  0.1344  0.0086 -0.1793
    1W        W62207   7.353  16.653   1.829 -0.2689  0.1269 -0.0167
    1W        W62208  11.559   8.387   3.232 -0.2693  0.0623 -0.0262
    1W        W62209   4.273  16.564   8.659  0.0395 -0.0484  0.1406
    1W        W62210  21.277  14.088   8.643  0.2385  0.0630 -0.0394
    1W        W62211   5.920   5.346   2.615  0.1416  0.1553 -0.2488
    1W        W62212   9.456   0.505   0.960 -0.0203 -0.2917  0.1863
    1W        W62213  13.413   5.859   0.314  0.1776 -0.0942 -0.0771
    1W        W62214  15.594   2.069   0.396 -0.0722 -0.1282  0.0504
    1W        W62215  27.373  16.001   1.728 -0.0204 -0.0619 -0.1420
    1W        W62216  28.717  21.554   6.492 -0.0297  0.1347  0.0059
    1W        W62217   6.816   6.397   1.815 -0.1722 -0.3225 -0.2102
    1W        W62218  13.705  28.530   7.542  0.2189  0.4794  0.2531
    1W        W62219   6.679  20.900   6.957  0.2111  0.0625  0.0479
    1W        W62220  10.675   1.440   8.062 -0.0353  0.0864 -0.0464
    1W        W62221  23.265  27.837   0.570 -0.0290  0.2625 -0.2701
    1W        W62222  13.350   3.767   7.503 -0.6090 -0.1746 -0.1679
    1W        W62223  13.696  20.381   7.581 -0.0201  0.3017  0.2394
    1W        W62224   1.625   0.627   2.502 -0.1311  0.1060 -0.0109
    1W        W62225   1.150  28.041   1.066 -0.1044 -0.1529 -0.0949
    1W        W62226  16.950   6.026   2.883  0.4365  0.1986 -0.0988
    1W        W62227  13.384  27.652   2.734  0.2516  0.0971  0.2575
    1W        W62228   4.519   6.666   1.301  0.0148  0.1099  0.0132
    1W        W62229  26.439   0.647   7.137 -0.2775 -0.0561 -0.0473
    1W        W62230  10.912  16.754   8.077 -0.0235 -0.2051  0.1773
    1W        W62231  28.296  21.219   2.238 -0.0223  0.1335 -0.0580
    1W        W62232   9.834   4.850   8.569  0.1818  0.2646 -0.2488
    1W        W62233  11.049  10.610   2.872 -0.0831  0.0487 -0.2951
    1W        W62234  28.887   4.206   6.423 -0.0841 -0.0203 -0.1626
    1W        W62235   2.003  12.557   0.062  0.0905  0.0230  0.2361
    1W        W62236  12.979   4.286   3.661 -0.1793 -0.1276  0.1878
    1W        W62237   7.283   1.618   7.548  0.1515 -0.1003  0.0820
    1W        W62238  11.352  22.825   8.391 -0.0101 -0.2341 -0.0456
    1W        W62239  19.948   1.237   9.171 -0.1556  0.0922  0.0874
    1W        W62240  20.439  16.663   9.392 -0.0123 -0.0127  0.0775
    1W        W62241  15.433   7.545   8.999 -0.2382 -0.1325 -0.0829
    1W        W62242  10.244  27.112   0.893 -0.1224 -0.2280 -0.4295
    1W        W62243  14.718  17.394   9.243  0.1197  0.1562 -0.3067
    1W        W62244   2.288  20.663   8.137  0.0269 -0.0937 -0.0597
    1W        W62245  21.091  29.634   6.947  0.0031 -0.2037 -0.0441
    1W        W62246   0.580  16.057   5.937 -0.2596 -0.1045  0.0423
    1W        W62247  14.377  14.119   1.882 -0.1162 -0.1883 -0.0703
    1W        W62248   9.674  11.306   0.990 -0.1042  0.0686  0.1460
    1W        W62249  14.629  13.751   0.402 -0.0389  0.1954 -0.1973
    1W        W62250   7.186   0.766   3.819  0.1256  0.1304  0.0753
    1W        W62251  19.098  14.653   8.090  0.3037 -0.0483 -0.1124
    1W        W62252  21.398   7.966   7.543  0.2316  0.0990 -0.2281
    1W        W62253  13.013   2.846   0.610 -0.0487 -0.2943 -0.0861
    1W        W62254   0.315  23.829   7.130 -0.3660  0.2238  0.0111
    1W        W62255   6.616  29.364   7.547 -0.0476 -0.0970 -0.0909
    1W        W62256   7.332   1.654   1.985  0.0783 -0.1755 -0.0997
    1W        W62257  28.862   6.117   6.451  0.1985 -0.1187 -0.0403
    1W        W62258   0.901  20.334   9.351  0.0261 -0.0365 -0.0548
    1W        W62259  29.492  12.432   1.534  0.2057 -0.1520  0.1026
    1W        W62260  12.993   7.893   1.325 -0.0120  0.0406  0.0256
    1W        W62261  18.988  19.033   7.854 -0.1383  0.4569 -0.2865
    1W        W62262  26.798   4.842   0.966 -0.1939 -0.0178  0.0234
    1W        W62263  12.117  25.608   0.918 -0.1473 -0.0853 -0.3060
    1W        W62264  16.793   4.892   1.168 -0.2122 -0.0214 -0.0844
    1W        W62265  13.625  26.500   3.253  0.2660 -0.2086 -0.0684
    1W        W62266  24.289  14.192   7.613  0.3238 -0.2855  0.1633
    1W        W62267  12.125   0.494   3.295  0.0481  0.1081  0.2287
    1W        W62268  20.421   4.813   0.870  0.1699 -0.1428  0.1465
    1W        W62269  15.827  12.153   2.010  0.3059 -0.2365  0.2611
    1W        W62270  25.043  20.171   2.028 -0.0216  0.2181  0.0629
    1W        W62271   4.499  18.587   7.924  0.1116  0.2655 -0.0726
    1W        W62272  16.307  21.605   9.143  0.0977  0.1326  0.1016
    1W        W62273  24.162  10.280   8.928 -0.0552 -0.1816  0.2723
    1W        W62274  26.812   4.956   6.562 -0.3185 -0.2210  0.1016
    1W        W62275  27.022  13.664   6.679 -0.2246  0.0616  0.1092
    1W        W62276  29.581   0.159   8.082 -0.1892 -0.2379  0.1568
    1W        W62277  14.172   7.315   8.389 -0.0750  0.2007 -0.0553
    1W        W62278  12.680   6.227   0.476 -0.1857  0.0234 -0.0187
    1W        W62279  30.007  22.567   7.093  0.0489  0.0573 -0.2058
    1W        W62280  20.038  13.224   0.613  0.2893  0.0385  0.0236
    1W        W62281  12.357  28.839   0.935  0.2259 -0.0712  0.3228
    1W        W62282  10.170   4.406   8.981  0.1244  0.0290 -0.0647
    1W        W62283   4.600   0.343   8.605  0.0842  0.1781 -0.3088
    1W        W62284   3.425  29.449   9.186  0.3643  0.2165 -0.0635
    1W        W62285  22.062  28.047   2.585  0.2605  0.1988  0.1346
    1W        W62286  10.955   7.177   0.776 -0.1349  0.2357  0.1396
    1W        W62287   1.591   5.669   2.050  0.0240 -0.1487  0.1312
    1W        W62288  27.711  28.468   2.377 -0.0416 -0.0442 -0.0378
    1W        W62289  14.414  29.525   6.894  0.1206  0.1182  0.0103
    1W        W62290   2.730   5.869   1.881  0.1020  0.0019 -0.1482
    1W        W62291  16.132  10.361   1.434  0.0210  0.0014  0.1040
    1W        W62292  12.160  16.183   8.758  0.0244  0.0098 -0.1856
    1W        W62293  18.681   0.540   1.624  0.0170 -0.1501  0.1719
    1W        W62294  19.088   4.222   2.779 -0.1072  0.0163  0.5353
    1W        W62295   6.892  29.444   0.504  0.2493 -0.3316 -0.0537
    1W        W62296   7.799   8.361   8.287  0.1295  0.2326  0.3734
    1W        W62297  10.011  10.783   1.690  0.0944  0.2862 -0.1401
    1W        W62298   0.928  18.377   6.373 -0.2225  0.1771 -0.1023
    1W        W62299  24.841   2.433   0.547 -0.1123  0.2957  0.0473
    1W        W62300  18.511  23.264   1.925  0.1380 -0.3854  0.0713
    1W        W62301  21.203  23.380   7.832 -0.1178 -0.0449 -0.0800
    1W        W62302  29.335  25.655   2.838 -0.1344 -0.2672 -0.3716
    1W        W62303   6.204  21.225   8.820 -0.2071  0.2888 -0.1546
    1W        W62304  29.887   6.202   0.367  0.2902 -0.2066  0.2957
    1W        W62305  13.468   3.783   1.799 -0.0255  0.0203 -0.0586
    1W        W62306  29.725   8.943   6.741 -0.2001 -0.3099  0.1147
    1W        W62307   1.689  10.635   0.634 -0.0842 -0.0958 -0.0326
    1W        W62308   7.239  16.851   7.533  0.0813  0.5007 -0.0764
    1W        W62309   4.773  23.208   5.328  0.1536 -0.2872 -0.0207
    1W        W62310  21.720  26.830   2.008  0.1502 -0.3810  0.3039
    1W        W62311  27.279  27.298   1.779 -0.1073  0.0040  0.0528
    1W        W62312  29.527  21.983   6.865 -0.1297 -0.2363  0.1277
    1W        W62313  12.142  23.174   0.382 -0.1821  0.0781 -0.1083
    1W        W62314  27.767   5.276   0.602 -0.0510 -0.1138 -0.0485
    1W        W62315   2.373  26.044   8.388 -0.3471 -0.4385  0.0356
    1W        W62316  28.913  16.406   0.942 -0.2077 -0.0662 -0.1469
    1W        W62317   1.405   5.119   7.290 -0.0134  0.2376  0.2994
    1W        W62318  29.833  22.198   0.404  0.1778  0.0324 -0.1683
    1W        W62319  13.741  25.338   1.539  0.0056 -0.0883 -0.0017
    1W        W62320  23.639  10.540   7.770  0.3896 -0.2107  0.0565
    1W        W62321  20.639   6.722   2.526  0.2771  0.1891 -0.3330
    1W        W62322   3.701  27.457   8.361 -0.2114 -0.1974  0.0912
    1W        W62323  21.493   8.793   7.445  0.1298  0.2649  0.1630
    1W        W62324  15.630  11.008   1.912  0.1559 -0.0701 -0.0679
    1W        W62325   0.398   2.080   7.065  0.3225 -0.0460  0.1633
    1W        W62326  21.968  28.752   7.715 -0.3032 -0.0242 -0.2213
    1W        W62327  18.918  28.901   1.502 -0.0162 -0.0425 -0.0223
    1W        W62328  17.557  26.814   2.148 -0.1101  0.3020 -0.0735
    1W        W62329  22.773   0.386   3.552  0.0964 -0.0531 -0.0174
    1W        W62330  26.704  22.924   8.854  0.0884 -0.1611  0.2131
    1W        W62331  22.173   5.021   1.411 -0.0817 -0.0990  0.1246
    1W        W62332   1.412  17.888   0.919  0.2067  0.6119 -0.0764
    1W        W62333  17.504  20.774   7.142  0.0512  0.1173 -0.1169
    1W        W62334   4.227   5.155   7.254 -0.1236  0.1879  0.0662
    1W        W62335  13.291   1.459   8.553 -0.0340  0.0368 -0.0128
    1W        W62336  28.663   8.466   8.276 -0.1401  0.0916  0.1622
    1W        W62337   2.228  15.065   0.818 -0.2703  0.1840  0.2532
    1W        W62338  13.349  25.181   9.388  0.2752  0.0088 -0.0249
    1W        W62339   0.205  19.399   5.950 -0.0353  0.1055  0.0950
    1W        W62340  22.578  22.685   7.105  0.2561 -0.0343  0.1965
    1W        W62341   5.567  24.703   6.984  0.0553 -0.1117  0.0450
    1W        W62342  16.864  18.160   1.972 -0.1892  0.0613 -0.1456
    1W        W62343   5.203  16.169   1.711  0.0119  0.0850  0.1502
    1W        W62344   0.409  30.016   2.567  0.1152  0.2845  0.0052
    1W        W62345  15.578  29.369   0.907  0.2013 -0.0635 -0.3763
    1W        W62346   6.858  27.291   0.980 -0.1234  0.0332 -0.0520
    1W        W62347  16.478  14.259   7.591  0.2047 -0.2630 -0.2505
    1W        W62348  18.166  21.505   1.551  0.0372  0.4042 -0.1130
    1W        W62349   4.185  17.867   9.202 -0.3264 -0.2247 -0.1997
    1W        W62350   6.282  27.153   7.295  0.0272 -0.3327 -0.3707
    1W        W62351  25.108  28.666   6.997 -0.1304 -0.1326  0.2506
    1W        W62352   9.052  13.409   8.038  0.0027 -0.2322 -0.0147
    1W        W62353   9.530  24.747   7.478 -0.2687 -0.1266 -0.2652
    1W        W62354  25.670  20.697   1.901  0.0282 -0.0123 -0.1752
    1W        W62355  19.547  15.943   8.566 -0.1296 -0.0114 -0.0947
    1W        W62356   9.961  15.782   7.842 -0.0724  0.0045 -0.0904
    1W        W62357  10.677  22.756   0.023 -0.1755  0.2095  0.1874
    1W        W62358   8.437  21.800   1.926  0.0793  0.0802  0.1225
    1W        W62359  22.822  18.464   6.733 -0.2848 -0.1026 -0.3125
    1W        W62360  15.739  14.031   1.408  0.0343  0.1553 -0.0864
    1W        W62361  17.631  17.421   0.198 -0.2172 -0.0658 -0.0663
    1W        W62362   7.259  19.118   1.316 -0.0629 -0.0055 -0.0926
    1W        W62363  11.969   7.574   3.193  0.0970 -0.3611  0.0921
    1W        W62364   3.869   0.017   4.049 -0.0802 -0.2216  0.1075
    1W        W62365  21.513  10.487   0.145  0.2636 -0.3087  0.0305
    1W        W62366  22.069   8.147   0.362 -0.0968  0.0738  0.2302
    1W        W62367   0.046  12.584   6.354  0.4080  0.0848 -0.3991
    1W        W62368  23.523   4.712   9.179 -0.0236  0.0352 -0.0904
    1W        W62369  10.851  13.275   0.767 -0.2698  0.0710  0.0499
    1W        W62370  23.594   0.288   0.337 -0.0270 -0.0333 -0.2859
    1W        W62371  25.571   0.636   7.533  0.0305  0.1496  0.2783
    1W        W62372  23.844  30.010   9.035 -0.0811  0.0090 -0.4828
    1W        W62373  11.212  21.100   6.639  0.2214 -0.1612 -0.2179
    1W        W62374   3.190   3.734   9.089  0.1008 -0.1843 -0.1041
    1W        W62375  20.214  14.552   2.325 -0.1501 -0.2570 -0.1298
    1W        W62376   7.283   5.579   2.610  0.1128 -0.0106 -0.0233
    1W        W62377  27.430  19.748   7.359 -0.3354 -0.0008  0.0789
    1W        W62378   5.659   9.369   3.052  0.1406 -0.1589  0.1875
    1W        W62379  27.055  11.479   8.728 -0.0413  0.2407 -0.1846
    1W        W62380  22.085  27.860   7.749  0.0502  0.1058  0.2300
    1W        W62381  26.903  20.514   8.807 -0.3554  0.2021 -0.0920
    1W        W62382  14.369   9.489   8.200  0.2538 -0.2325  0.2042
    1W        W62383   0.916  18.560   8.135  0.0452 -0.0746  0.0532
    1W        W62384  29.687  25.446   9.274  0.3655  0.2383  0.0282
    1W        W62385   5.734  18.127   0.432 -0.5558  0.2201 -0.2250
    1W        W62386  15.188  22.390   2.467 -0.0605 -0.4367 -0.2431
    1W        W62387   6.493  25.243   1.377 -0.0553  0.1501 -0.0569
    1W        W62388   0.808  10.948   7.393  0.0880 -0.0505  0.1323
    1W        W62389  22.989   2.615   0.206  0.0433 -0.2954  0.1189
    1W        W62390  17.416   0.737   2.885  0.0287  0.1783  0.1179
    1W        W62391  12.360  30.128   3.026  0.6094  0.1312  0.3638
    1W        W62392  21.159  12.731   0.946  0.1268  0.1309 -0.2094
    1W        W62393   3.555  19.008   7.696  0.0633  0.1457 -0.3166
    1W        W62394  23.226  18.781   9.078  0.0824  0.2371 -0.1092
    1W        W62395   3.640  20.661   5.600 -0.0093  0.1120  0.1386
    1W        W62396  28.146   3.246   7.048  0.1290  0.0509 -0.0389
    1W        W62397  20.146   7.716   9.402 -0.2165 -0.4611  0.1545
    1W        W62398  11.985  28.744   1.764 -0.1123 -0.0555 -0.1147
    1W        W62399  20.137  19.786   6.669  0.2388 -0.2129  0.2858
    1W        W62400   6.573  21.614   8.865 -0.0701  0.2940 -0.0829
    1W        W62401   2.374  18.972   9.391  0.0802 -0.0769 -0.0654
    1W        W62402  26.622   3.662   1.227  0.0266 -0.2440  0.0753
    1W        W62403  17.205   8.094   2.034  0.3372 -0.1930  0.1731
    1W        W62404   7.805   1.906   2.535  0.1155  0.1415 -0.1732
    1W        W62405   6.150  12.340   6.786 -0.0737  0.0573  0.2671
    1W        W62406   2.105   3.592   0.767 -0.3959 -0.1553 -0.1868
    1W        W62407  17.986  17.317   9.189  0.1292  0.6737 -0.0082
    1W        W62408   7.229   8.767   8.545 -0.0007  0.3351 -0.0930
    1W        W62409  12.565  20.973   0.972  0.1733 -0.1705 -0.2433
    1W        W62410  23.101  19.397   1.164  0.0437  0.3945 -0.1731
    1W        W62411  30.023  10.596   9.089  0.0940 -0.1893  0.2227
    1W        W62412  12.309  18.705   2.154 -0.1226  0.0209  0.1308
    1W        W62413  29.264   6.776   0.353 -0.2181  0.1376 -0.0493
    1W        W62414  10.487  10.730   7.869  0.1014 -0.0069  0.1261
    1W        W62415  19.375  24.000   7.168  0.0539 -0.3235  0.0463
    1W        W62416  23.867   2.977   8.476 -0.0533 -0.2078  0.0062
    1W        W62417  21.441   2.165   1.803  0.0219  0.6271 -0.2209
    1W        W62418  19.193  27.337   9.013  0.0120 -0.1545 -0.0201
    1W        W62419  26.305   7.986   7.296 -0.0481  0.0684 -0.3516
    1W        W62420  12.675  10.855   7.645  0.2233  0.1253 -0.1541
    1W        W62421  27.024  13.772   6.086  0.0242  0.0041  0.0451
    1W        W62422  17.260   2.093   8.334 -0.6154  0.1410  0.0404
    1W        W62423  21.018  26.633   8.668  0.0910 -0.0597  0.1149
    1W        W62424  17.778   9.398   9.201 -0.1654 -0.1546  0.0186
    1W        W62425  28.595  22.085   8.665 -0.1419 -0.3186  0.1408
    1W        W62426  20.041  23.230   0.098  0.2037 -0.0476  0.1378
    1W        W62427  11.609   9.515   7.996 -0.0726  0.2110 -0.1362
    1W        W62428  19.871  20.393   8.661  0.0743 -0.0261  0.1781
    1W        W62429  15.835  14.141   1.900  0.3003  0.1657 -0.0830
    1W        W62430  26.366  14.504   2.189 -0.0712  0.0189  0.1298
    1W        W62431  17.287  18.753   7.054  0.2877 -0.2480 -0.1622
    1W        W62432  24.931  14.399   6.178 -0.1223 -0.1220 -0.1461
    1W        W62433  28.541   4.361   8.902  0.1487 -0.0455 -0.0445
    1W        W62434  11.190   9.922   0.099  0.0200  0.0352  0.0089
    1W        W62435   0.841  24.297   0.796 -0.1012 -0.1027  0.0905
    1W        W62436   4.893  12.897   7.065  0.0209 -0.4214  0.0733
    1W        W62437  24.245   1.749   7.662  0.1171 -0.1726 -0.4120
    1W        W62438  17.793  18.680   6.927 -0.1039 -0.2714 -0.0242
    1W        W62439   6.554  26.778   7.549  0.1673  0.0562 -0.0430
    1W        W62440  24.640  18.157   1.045  0.0149 -0.1036 -0.0072
    1W        W62441   1.417  20.887   7.195 -0.0472 -0.0356 -0.2084
    1W        W62442  12.905  20.551   8.596 -0.2295 -0.0351  0.1834
    1W        W62443   0.035  29.554   1.739 -0.4533 -0.1052  0.0952
    1W        W62444  22.607  19.676   1.101  0.1064 -0.0944  0.2328
    1W        W62445  13.861   7.469   7.487 -0.2554  0.2034 -0.0498
    1W        W62446   3.062   3.316   6.844  0.0648  0.0911 -0.2881
    1W        W62447   1.223  15.835   7.363 -0.3419  0.4341  0.1958
    1W        W62448   5.385   1.506   3.067  0.4784  0.3360 -0.2158
    1W        W62449   1.581   1.950   8.753 -0.3113 -0.1313 -0.0819
    1W        W62450  12.346  28.430   3.166  0.3410  0.0737 -0.1631
    1W        W62451  21.293   3.816   7.205 -0.1230 -0.0972 -0.1157
    1W        W62452  23.883  11.207   0.255 -0.3040 -0.2482  0.0569
    1W        W62453  25.101   8.998   6.145 -0.0193  0.0251 -0.0267
    1W        W62454  12.248   0.067   8.105 -0.2411  0.1194  0.1159
    1W        W62455  14.642  23.196   0.066 -0.2394 -0.2235 -0.1035
    1W        W62456  28.097  23.361   0.841  0.1799  0.0196 -0.1290
    1W        W62457  14.311  18.088   1.494 -0.1537  0.0186  0.2878
    1W        W62458  10.837   8.389   2.616 -0.1580  0.1553 -0.0879
    1W        W62459   6.516  27.099   7.945  0.1647 -0.0410  0.2477
    1W        W62460  29.475   4.448   9.035  0.0956 -0.0869 -0.0479
    1W        W62461  17.022   2.840   1.004  0.0766  0.2637  0.2401
    1W        W62462   5.534  15.763   0.544 -0.3667 -0.0891  0.0162
    1W        W62463  15.452  22.627   1.901  0.1118  0.0237 -0.4144
    1W        W62464  20.322   3.852   0.758 -0.0101 -0.1580  0.2696
    1W        W62465  27.831  28.994   1.276 -0.3053 -0.1080 -0.0644
    1W        W62466   2.687   9.694   8.995 -0.1814 -0.2716 -0.0619
    1W        W62467  21.910  11.204   1.324  0.2878  0.0967 -0.1225
    1W        W62468  10.957   6.248   8.950 -0.0290  0.0181 -0.0705
    1W        W62469  17.586   7.670   2.743  0.0036 -0.1062  0.2079
    1W        W62470   6.994  11.163   9.250  0.0014  0.1902  0.0265
    1W        W62471   6.109  26.138   0.513  0.1922 -0.1934 -0.2122
    1W        W62472  14.882  23.188   7.404  0.0571 -0.1581 -0.0294
    1W        W62473   3.865  24.687   1.218  0.0555 -0.0236 -0.1507
    1W        W62474   9.876   1.689   8.413  0.1743  0.0780 -0.1347
    1W        W62475  19.762  13.098   7.036  0.0375 -0.1806 -0.0242
    1W        W62476   5.811  12.626   8.262 -0.1876 -0.2055 -0.0178
    1W        W62477  25.141  25.222   2.236  0.4702  0.0604  0.1646
    1W        W62478  24.399   8.072   8.282  0.0060  0.0800 -0.0097
    1W        W62479  27.950  14.207   1.686 -0.2814  0.0122  0.1681
    1W        W62480   3.675   2.531   2.169  0.2018 -0.3536 -0.0451
    1W        W62481  27.780   6.379   7.926  0.2226 -0.4508 -0.2377
    1W        W62482  26.972  24.486   0.580 -0.2208 -0.2191 -0.0655
    1W        W62483  28.142  20.069   9.092  0.2678  0.4123 -0.0284
    1W        W62484  25.755  17.681   7.325 -0.0438  0.0957 -0.1825
    1W        W62485  12.269   3.338   0.266 -0.3561  0.0586 -0.0005
    1W        W62486  23.354   7.077   3.385  0.2533  0.0470 -0.0071
    1W        W62487   4.830  27.858   0.203  0.2663  0.0551 -0.0264
    1W        W62488   9.977  28.090   3.420 -0.0225 -0.0429  0.0406
    1W        W62489  25.925  10.200   8.373 -0.0609  0.1033 -0.0704
    1W        W62490  25.447  26.938   9.321  0.1175  0.1679 -0.2137
    1W        W62491   7.698  25.311   6.391  0.1127 -0.0580 -0.1470
    1W        W62492  15.890  25.541   8.443 -0.1854 -0.3294  0.0127
    1W        W62493  29.777   6.742   6.697  0.4665  0.0115 -0.1948
    1W        W62494  18.801  23.510   8.903  0.0095  0.2356 -0.1641
    1W        W62495  25.114  17.872   5.927  0.1435 -0.4000 -0.1878
    1W        W62496   0.332  26.553   0.619 -0.0323  0.1303 -0.0948
    1W        W62497  12.411  15.641   2.327 -0.1525  0.1833 -0.1378
    1W        W62498   8.287  26.706   2.217  0.1415  0.1332  0.4108
    1W        W62499  26.239  22.093   0.326  0.0123  0.0855 -0.0974
    1W        W62500  20.071  15.456   8.963  0.0666  0.2939 -0.1999
    1W        W62501   9.872   9.060   8.672  0.1074 -0.2056  0.1914
    1W        W62502   2.178   1.092   7.608 -0.2030 -0.0064 -0.0314
    1W        W62503  20.983  10.112   2.571 -0.0123  0.3626 -0.0960
    1W        W62504   0.693  25.253   0.095 -0.2195  0.1398  0.1523
    1W        W62505  29.911  19.523   6.865  0.0498  0.0177  0.1584
    1W        W62506   0.713   3.971   1.235 -0.1446  0.3200  0.1620
    1W        W62507   5.509  23.069   6.031  0.0997 -0.2705 -0.0306
    1W        W62508   2.201  19.215   1.564 -0.3140 -0.0517  0.2601
    1W        W62509  12.601   5.028   0.913  0.0405  0.1048  0.0971
    1W        W62510  29.601   0.531   2.911  0.4679 -0.1532  0.0522
    1W        W62511   5.409   3.171   0.946 -0.4286 -0.3267  0.2700
    1W        W62512  15.374  13.009   0.604  0.1952  0.1741 -0.0437
    1W        W62513  15.494  24.328   2.412  0.0329  0.1294  0.0677
    1W        W62514  26.159   6.308   7.869 -0.0404  0.0431 -0.1350
    1W        W62515  17.291   1.198   6.944 -0.2274  0.4149 -0.2176
    1W        W62516  18.811  24.165   1.487  0.0671  0.2804  0.1354
    1W        W62517  14.401  20.531   0.723  0.3131  0.3605 -0.3770
    1W        W62518  24.468  12.633   0.391 -0.5457 -0.2841  0.1130
    1W        W62519  22.343  25.068   7.733 -0.0369 -0.0284  0.2992
    1W        W62520   5.563   8.270   2.496 -0.3538  0.0831 -0.2192
    1W        W62521  16.523  20.714   9.135  0.2142  0.0729  0.2248
    1W        W62522   1.677  13.975   7.092  0.0567  0.0359  0.2889
    1W        W62523  26.329  14.919   6.329  0.2549 -0.1071  0.1675
    1W        W62524  16.748  23.381   1.801  0.1035  0.1647  0.2376
    1W        W62525  28.617  14.161   0.862 -0.1797 -0.0426 -0.2284
    1W        W62526   8.029   3.813   7.431 -0.0085  0.2923 -0.1187
    1W        W62527   8.535  28.143   2.046  0.1487  0.2344 -0.0990
    1W        W62528  23.978  27.800   8.655  0.1921 -0.0313 -0.1433
    1W        W62529   8.954   3.370   7.128 -0.1594  0.1963  0.1888
    1W        W62530  10.245  16.374   8.718 -0.0644  0.1147 -0.2670
    1W        W62531  14.568  23.303   0.758 -0.1887 -0.0607  0.1731
    1W        W62532  28.980  21.024   0.952  0.1081 -0.1021  0.1104
    1W        W62533   6.112  17.158   1.156  0.0023  0.3311  0.0356
    1W        W62534  11.536   4.529   2.529 -0.1690  0.1228 -0.1930
    1W        W62535  17.304   2.446   2.551  0.0169  0.1237  0.0501
    1W        W62536   8.126  21.777   2.387 -0.0732  0.0565 -0.1440
    1W        W62537  28.576  18.510   2.473  0.0179  0.0086  0.2034
    1W        W62538  22.679   1.444   8.112  0.2615 -0.0767  0.1989
    1W        W62539  24.220  28.742   7.740  0.1180  0.0361 -0.2235
    1W        W62540   5.804  13.225   7.037  0.0829 -0.0069 -0.3907
    1W        W62541  21.740  15.504   0.317  0.1134  0.1880 -0.1340
    1W        W62542  17.904  18.398   9.140  0.2264  0.0423 -0.0184
    1W        W62543  17.805  19.037   7.255  0.1747 -0.1431 -0.1781
    1W        W62544  24.348  27.233   8.692  0.0221 -0.0670  0.1619
    1W        W62545   3.910  10.830   0.620 -0.1311  0.2406  0.0153
    1W        W62546   3.102  22.455   6.852  0.0124 -0.0721  0.0712
    1W        W62547  18.848  20.291   8.303  0.2203  0.0153 -0.3855
    1W        W62548   8.861   8.467   2.404 -0.3316  0.1479 -0.1111
    1W        W62549  19.678  23.350   7.930  0.1433  0.0924  0.0353
    1W        W62550   1.358   9.745   8.802  0.2063  0.0217 -0.2258
    1W        W62551  15.319   4.998   2.063  0.1989 -0.3690 -0.0245
    1W        W62552  24.478   0.464   6.773  0.0215 -0.1610  0.1052
    1W        W62553  24.581   6.480   8.967 -0.1325  0.0565  0.0264
    1W        W62554  26.712  13.724   9.149  0.1606  0.1221  0.1127
    1W        W62555  29.467   5.066   9.091  0.1350 -0.0245 -0.1787
    1W        W62556   6.975  21.609   0.985 -0.0663 -0.0392 -0.2401
    1W        W62557  18.525  19.630   7.231 -0.2112 -0.5845  0.0386
    1W        W62558  24.581  12.043   7.251  0.0398  0.3303 -0.0674
    1W        W62559  16.904  10.528   1.975 -0.0202 -0.0642 -0.5699
    1W        W62560   0.812   0.159   2.546  0.1275 -0.0336  0.0215
    1W        W62561  20.154  14.214   0.512 -0.0135  0.1663 -0.0699
    1W        W62562  24.107   9.793   9.090  0.1640 -0.2220  0.2656
    1W        W62563  13.088  19.805   2.152 -0.1054  0.1635 -0.1051
    1W        W62564   3.199  22.677   1.976 -0.1058  0.0572  0.2134
    1W        W62565  16.094  15.333   8.186  0.0095  0.1679 -0.2104
    1W        W62566   4.410  17.052   5.333 -0.1247 -0.1009 -0.0904
    1W        W62567   3.628   2.799   6.261 -0.0274  0.0162  0.0625
    1W        W62568  19.561  17.574   1.581  0.0195 -0.1962 -0.3027
    1W        W62569  24.468  10.549   0.041 -0.1588  0.1811  0.0984
    1W        W62570  10.943  23.126   8.451  0.0391  0.1403 -0.0950
    1W        W62571  11.609  15.064   2.352 -0.1297 -0.2115  0.2006
    1W        W62572  12.466   2.422   3.395 -0.0121  0.0801 -0.1008
    1W        W62573  29.255   1.162   0.674 -0.1665  0.3246 -0.0426
    1W        W62574  14.026  20.422   7.986 -0.1421  0.1721  0.1513
    1W        W62575  17.646   0.878   7.795  0.0576 -0.2828  0.1640
    1W        W62576  29.630  29.942   8.623 -0.0625 -0.1854 -0.1911
    1W        W62577   7.192  28.608   7.957 -0.4661 -0.5263  0.1465
    1W        W62578  20.133  25.204   2.372  0.2996  0.1047 -0.0680
    1W        W62579   9.206  17.898   2.619  0.2180 -0.0382  0.0818
    1W        W62580  21.164  22.877   7.124 -0.3151 -0.0117 -0.0458
    1W        W62581   4.900  18.171   1.294  0.1837 -0.1493 -0.3961
    1W        W62582   1.295  25.979   8.518 -0.3036 -0.2986  0.2221
    1W        W62583  28.793  16.010   5.822  0.3150  0.2056 -0.0124
    1W        W62584  21.352  11.386   2.160  0.0473  0.0544 -0.3412
    1W        W62585  21.248  22.685   0.576 -0.0438  0.0685 -0.2202
    1W        W62586   0.483   5.798   1.625 -0.1802 -0.0599  0.1888
    1W        W62587   9.764  23.329   7.584 -0.1658  0.2194 -0.1212
    1W        W62588   6.719  23.149   7.055 -0.3506  0.1149 -0.2023
    1W        W62589   0.984   8.110   7.112  0.2697 -0.2413 -0.0049
    1W        W62590   6.957   1.186   8.257 -0.1233  0.1068 -0.2613
    1W        W62591  17.497  20.225   9.179 -0.0944  0.2692 -0.0419
    1W        W62592  22.702   9.204   0.367 -0.0439  0.0020  0.0316
    1W        W62593  20.756  25.750   7.593  0.0488 -0.0495 -0.0888
    1W        W62594   6.100  23.477   8.583  0.1070 -0.0236 -0.0513
    1W        W62595  16.615   4.039   3.576  0.0987 -0.0018  0.0843
    1W        W62596   7.795  23.553   6.960 -0.0691  0.0818  0.0727
    1W        W62597  27.129  16.708   6.614  0.0256  0.0048 -0.0789
    1W        W62598   7.779   8.574   1.555 -0.1171 -0.1008  0.1551
    1W        W62599   8.945   8.932   3.795  0.1888 -0.1225  0.0228
    1W        W62600  17.884  15.963   7.773 -0.1242  0.2158  0.3390
    1W        W62601   7.823  11.973   2.676  0.2803  0.0202  0.0185
    1W        W62602   3.002   6.080   2.845  0.1735  0.0411  0.0377
    1W        W62603   7.509  10.583   3.361 -0.2591  0.2379  0.1822
    1W        W62604  17.662  28.394   8.424 -0.4563  0.2145 -0.0047
    1W        W62605  12.111   1.359   9.022  0.1310  0.0365 -0.0021
    1W        W62606   4.816  11.829   1.397  0.4550 -0.1152 -0.0729
    1W        W62607   2.410   9.557   0.113  0.1054  0.0806 -0.1163
    1W        W62608  27.105  28.246   2.512  0.0422  0.3516 -0.0965
    1W        W62609   3.155  25.105   0.324 -0.2591  0.1868 -0.1041
    1W        W62610  20.505  20.655   7.527  0.0809  0.0909 -0.3111
    1W        W62611  22.034  26.746   7.337 -0.1419  0.2988  0.1976
    1W        W62612   5.217   7.598   8.970  0.3004 -0.2592 -0.1634
    1W        W62613  16.981  15.358   1.745  0.0701 -0.2588 -0.0433
    1W        W62614  29.888   6.153   2.390 -0.1667  0.2273 -0.0633
    1W        W62615   3.575   2.542   0.057  0.0198  0.1966  0.0167
    1W        W62616  27.684  16.050   7.461  0.1394  0.0680 -0.0081
    1W        W62617  17.163  20.806   0.392 -0.0830 -0.0003  0.2340
    1W        W62618  18.243   0.898   7.744 -0.3331 -0.1904 -0.0620
    1W        W62619   2.046   3.896   7.269  0.0369  0.3705  0.0743
    1W        W62620  27.688  11.483   6.724  0.3329  0.0020 -0.2105
    1W        W62621  13.165  18.056   0.781  0.1310  0.2351 -0.1846
    1W        W62622  19.363  19.868   7.832 -0.1186 -0.1004 -0.0437
    1W        W62623  11.699  10.756   7.863 -0.1186 -0.0676 -0.0767
    1W        W62624  28.221  21.359   9.056 -0.1088  0.0744 -0.1611
    1W        W62625   3.336   4.813   7.410  0.1930  0.0851  0.0623
    1W        W62626   1.663  30.041   8.921  0.1317  0.0045 -0.1898
    1W        W62627   2.411   9.264   8.326  0.3003 -0.1560 -0.0631
    1W        W62628   8.126  14.074   0.766  0.2266  0.0926 -0.1689
    1W        W62629  21.942  26.392   9.148  0.0612 -0.1910 -0.1617
    1W        W62630  12.972  12.196   7.761 -0.0123 -0.0620 -0.1691
    1W        W62631  20.836   0.721   2.332 -0.2434 -0.1051 -0.2809
    1W        W62632  29.350   8.213   6.416  0.0696  0.1940  0.1206
    1W        W62633   1.293  21.291   7.532  0.2595  0.5040 -0.0510
    1W        W62634   2.070  27.908   8.804 -0.4501 -0.1596  0.0992
    1W        W62635  18.392  25.480   9.021 -0.2575  0.0514 -0.0922
    1W        W62636   6.817  29.021   7.818  0.1438  0.3035  0.3064
    1W        W62637  21.352  14.509   0.469  0.1474  0.3009 -0.0874
    1W        W62638  23.164  10.695   1.580  0.0966 -0.1246  0.1012
    1W        W62639  17.398  15.439   0.033 -0.2406 -0.3165 -0.0826
    1W        W62640  23.381  12.830   0.201 -0.0948 -0.2387 -0.1521
    1W        W62641  24.006  29.121   7.393 -0.1220  0.1779 -0.0976
    1W        W62642   5.343  19.781   8.538 -0.0783  0.1746 -0.2886
    1W        W62643  28.429   2.089   1.749  0.1034  0.2081 -0.1542
    1W        W62644   2.770   0.756   8.615 -0.3484 -0.0072  0.0578
    1W        W62645  25.006  16.164   8.640  0.1268 -0.2312  0.3328
    1W        W62646   8.916   1.741   1.065  0.1569 -0.1766  0.0110
    1W        W62647   4.529  10.994   6.350  0.0889 -0.1948  0.2276
    1W        W62648  24.248  29.243   3.666  0.0278 -0.0353  0.0386
    1W        W62649  14.646   2.485   0.180  0.1193  0.2708 -0.1920
    1W        W62650  25.275   0.249   0.185 -0.0409  0.0498 -0.1382
    1W        W62651  28.703   8.106   6.342  0.0941  0.0054 -0.0168
    1W        W62652  13.238  13.048   8.190  0.0974 -0.1023  0.1986
    1W        W62653  19.655  23.937   2.141  0.0415 -0.0521  0.0302
    1W        W62654  24.047  23.880   0.934  0.2493 -0.2738  0.2299
    1W        W62655  17.781  22.466   0.045  0.0236  0.2951  0.0581
    1W        W62656  13.796  17.660   7.187  0.1407  0.0156  0.0238
    1W        W62657  25.040  16.716   1.454  0.2353  0.2412  0.1238
    1W        W62658  29.139  10.879   1.876  0.2458  0.0265  0.0341
    1W        W62659  11.914  14.168   2.277 -0.1893  0.3411  0.0542
    1W        W62660  16.455   0.175   0.458 -0.2065  0.1869 -0.3419
    1W        W62661  11.665  24.928   8.783 -0.0035  0.2172 -0.0955
    1W        W62662   3.815   1.378   3.018 -0.1874  0.2336 -0.2788
    1W        W62663  30.129  24.354   6.435  0.1286  0.1711 -0.2953
    1W        W62664  21.202  25.025   9.241  0.0325 -0.0302 -0.1857
    1W        W62665   5.733  15.101   2.568  0.0918  0.2021 -0.0140
    1W        W62666  18.174   3.656   7.243 -0.0050 -0.0934 -0.2007
    1W        W62667   6.436  16.856   0.668 -0.0908  0.0277  0.2430
    1W        W62668  23.062  11.259   7.763  0.0097  0.2214 -0.0791
    1W        W62669   8.844   2.724   2.322 -0.0010 -0.1046  0.0929
    1W        W62670  28.086  28.019   2.240 -0.0724 -0.5857 -0.1050
    1W        W62671  23.936  12.290   1.821 -0.0212  0.0664 -0.2802
    1W        W62672   9.296  18.820   0.938 -0.0076 -0.1168 -0.1066
    1W        W62673   0.251  24.287   9.206 -0.1207  0.0883 -0.1269
    1W        W62674  27.314   9.412   1.010  0.0801  0.1162  0.0287
    1W        W62675   9.354   2.935   8.753  0.3067 -0.1702 -0.0879
    1W        W62676   0.233  17.477   1.113  0.6454  0.0978  0.0899
    1W        W62677   4.025  23.274   0.019 -0.4844 -0.2201 -0.0529
    1W        W62678  24.448  30.126   2.773  0.1143 -0.0480 -0.1765
    1W        W62679  10.353  19.553   8.016 -0.1740 -0.1349 -0.2215
    1W        W62680  21.729  29.675   1.070 -0.1502 -0.2349 -0.1351
    1W        W62681   3.233  28.673   8.547 -0.0319 -0.0429 -0.1923
    1W        W62682   7.631  13.557   8.289  0.0744  0.0902 -0.2046
    1W        W62683  10.409   8.394   8.834 -0.1903  0.0483  0.1785
    1W        W62684   7.227  27.496   6.589 -0.0579  0.1189 -0.1350
    1W        W62685   3.320   2.131   2.460 -0.1679 -0.3585  0.5338
    1W        W62686  15.119   4.786   8.033  0.0791  0.0975  0.1776
    1W        W62687  28.860  16.049   6.624  0.1633  0.0471  0.2868
    1W        W62688  29.171  14.790   6.194  0.0070 -0.2907 -0.0775
    1W        W62689  22.915  22.174   6.421 -0.4277  0.1835  0.2700
    1W        W62690   4.426   8.488   0.445 -0.0026 -0.0730  0.3829
    1W        W62691  24.927  22.200   5.750  0.0117 -0.0982  0.2120
    1W        W62692  21.202  11.825   9.339  0.0283  0.1036 -0.0607
    1W        W62693  11.692   1.849   8.398 -0.0015  0.1060  0.1458
    1W        W62694  25.619  22.270   1.140  0.1151  0.4325  0.0065
    1W        W62695  23.093   7.479   0.505  0.0265  0.0157  0.0968
    1W        W62696  24.731  10.377   2.743 -0.1615 -0.2190 -0.0360
    1W        W62697  16.528   3.532   2.898  0.2096 -0.0194  0.1690
    1W        W62698   2.944  19.681   1.558 -0.0715 -0.0732 -0.0522
    1W        W62699  20.740  29.121   7.976  0.0193 -0.3501 -0.0661
    1W        W62700   2.176  21.271   7.682 -0.2417 -0.0213 -0.1576
    1W        W62701  25.905   6.096   0.066  0.1042  0.1816 -0.1685
    1W        W62702  27.456  14.008   1.826 -0.1575  0.0443 -0.1938
    1W        W62703  16.056  28.303   1.870  0.1068  0.0796 -0.0204
    1W        W62704   3.449   0.433   2.195  0.1084  0.5249  0.0838
    1W        W62705  11.142  27.533   3.450 -0.1089 -0.2015  0.1036
    1W        W62706   8.141  19.048   1.020  0.1566 -0.0262  0.4293
    1W        W62707   9.974   2.724   2.001  0.0464 -0.1150  0.2687
    1W        W62708  21.013  15.257   8.783  0.1456  0.1288  0.1932
    1W        W62709   4.917  29.794   7.951  0.1822 -0.0304 -0.0205
    1W        W62710  12.633  10.323   2.415  0.0640 -0.0751 -0.0133
    1W        W62711   2.722   8.522   6.532 -0.1797 -0.2165  0.1288
    1W        W62712   5.170   1.651   6.986 -0.1838  0.0608 -0.0751
    1W        W62713   1.708   7.475   1.390 -0.2149 -0.1378 -0.1038
    1W        W62714  27.420  22.082   0.888 -0.1321  0.0323  0.3893
    1W        W62715  14.718  29.665   1.675  0.0435 -0.0034 -0.2538
    1W        W62716  16.544  29.566   8.446 -0.0067 -0.1548 -0.2801
    1W        W62717   8.848  23.493   7.934 -0.2829  0.2232 -0.1168
    1W        W62718  20.076  15.122   8.505 -0.2179 -0.0893  0.1255
    1W        W62719   3.972  21.405   8.295  0.0959 -0.1818 -0.0457
    1W        W62720  17.408  16.884   7.753  0.0755 -0.2141  0.1156
    1W        W62721  16.081   0.144   8.248 -0.0456 -0.2273 -0.0240
    1W        W62722   3.041   2.338   1.538 -0.0962 -0.1514 -0.1690
    1W        W62723   4.825  17.553   7.925  0.0363 -0.2512  0.2548
    1W        W62724  28.863   3.672   0.135  0.1110  0.1849 -0.0581
    1W        W62725  29.808  10.344   2.602 -0.2975  0.0126  0.4328
    1W        W62726  12.577   4.952   7.482  0.0051 -0.0652  0.3465
    1W        W62727   0.100  19.619   0.274  0.1967  0.1088 -0.3438
    1W        W62728  21.456  12.584   7.467 -0.1727  0.1766 -0.1297
    1W        W62729  23.675  20.833   2.672 -0.0817 -0.0440  0.0714
    1W        W62730  28.480  19.577   0.963 -0.1919 -0.0386 -0.0873
    1W        W62731  26.186   6.175   3.372  0.0946 -0.4497  0.6500
    1W        W62732   7.519  30.038   8.489  0.0237 -0.0798  0.0513
    1W        W62733   0.237   3.594   8.078  0.2671  0.1785 -0.1263
    1W        W62734   4.302   7.986   9.400 -0.3448 -0.2498 -0.1470
    1W        W62735   0.233  23.522   1.983 -0.2950  0.1181  0.0046
    1W        W62736  24.243  15.600   9.374 -0.0647  0.1515 -0.1304
    1W        W62737  26.048  27.266   7.380 -0.2497 -0.0456 -0.2526
    1W        W62738   7.475   5.218   9.064 -0.2521 -0.1549  0.2382
    1W        W62739  19.179   4.384   0.520  0.2678 -0.1984 -0.0073
    1W        W62740  13.917  26.578   8.013  0.1002  0.2503 -0.0384
    1W        W62741   0.834  13.556   0.868 -0.0819 -0.1622 -0.0396
    1W        W62742  21.604  10.919   9.337  0.1431 -0.1047 -0.0464
    1W        W62743  25.884  12.940   1.475  0.1729 -0.0463 -0.1788
    1W        W62744  12.848   2.374   8.292 -0.2634 -0.0596 -0.0520
    1W        W62745  29.778  11.264   6.780  0.3303  0.1480 -0.3060
    1W        W62746  17.214   6.395   2.547  0.1067 -0.1892  0.1195
    1W        W62747   3.926  25.829   6.103  0.3195 -0.1422  0.1513
    1W        W62748  25.326  29.246   2.375  0.2479 -0.0657  0.1392
    1W        W62749   8.508  23.711   6.369 -0.1254  0.3208  0.0047
    1W        W62750  23.717  11.280   8.602  0.1024  0.1365  0.0041
    1W        W62751  26.445  29.360   3.371 -0.1251  0.1273 -0.0876
    1W        W62752  28.021   1.528   0.640 -0.0194 -0.1333 -0.0973
    1W        W62753   1.847  11.860   6.419  0.2056  0.0131  0.1932
    1W        W62754  26.984  23.875   9.279 -0.0531 -0.0978 -0.0916
    1W        W62755   4.527  18.568   0.070 -0.1945  0.1988 -0.3692
    1W        W62756  10.227  24.294   7.009 -0.0730 -0.0013 -0.0117
    1W        W62757  14.085  27.043   1.840 -0.1935 -0.1158 -0.2609
    1W        W62758  25.361  29.912   1.897  0.1638  0.0248  0.4209
    1W        W62759  18.510  24.041   7.941  0.1444  0.0276  0.0393
    1W        W62760   4.419   3.526   9.240  0.0783 -0.1689 -0.1182
    1W        W62761  24.183  22.402   8.344 -0.1410  0.0372 -0.1822
    1W        W62762   5.464   0.462   0.081  0.0255  0.0495 -0.0887
    1W        W62763  25.374  25.682   8.969 -0.0533  0.0804 -0.0064
    1W        W62764  29.322   8.930   1.454 -0.0713 -0.1636 -0.0309
    1W        W62765  13.860  11.788   1.254 -0.0081 -0.2647  0.2814
    1W        W62766  19.039  16.276   7.118 -0.1084  0.3940 -0.1443
    1W        W62767  27.291  17.996   1.049 -0.0144  0.0740 -0.3888
    1W        W62768   7.962   4.697   7.470 -0.2138  0.0735  0.3821
    1W        W62769   0.933  12.941   8.389 -0.1148  0.2121  0.0753
    1W        W62770  19.636  11.747   8.254  0.3663  0.1985  0.2542
    1W        W62771  19.125   6.570   7.954  0.0874  0.1508 -0.0581
    1W        W62772  12.023   5.267   2.434  0.2517 -0.1101 -0.0529
    1W        W62773   2.068   9.017   8.048  0.1860  0.0355  0.1933
    1W        W62774  27.877  14.810   7.464 -0.3153 -0.3048  0.0707
    1W        W62775   0.136  24.511   7.765 -0.3261  0.1402 -0.1371
    1W        W62776  11.816   5.669   7.874 -0.2944 -0.0169  0.2111
    1W        W62777   4.787  11.733   2.649  0.0845  0.3086  0.0863
    1W        W62778  12.226   8.926   2.054 -0.2668 -0.0955  0.0143
    1W        W62779  14.741  28.730   7.732 -0.0838  0.0992 -0.0971
    1W        W62780  12.263  27.966   3.412  0.0997 -0.2464 -0.2086
    1W        W62781  17.867  20.430   8.042  0.0365  0.0604  0.0784
    1W        W62782  13.937   3.339   0.049  0.0694  0.0860  0.1301
    1W        W62783   4.961  29.728   1.359 -0.1397 -0.0006  0.1984
    1W        W62784  27.923   3.486   7.561  0.1351  0.3076  0.1054
    1W        W62785   3.724   7.990   1.191  0.1869 -0.0838  0.1942
    1W        W62786  25.022  15.786   6.586 -0.2769  0.1248 -0.2902
    1W        W62787  15.397   0.019   0.546 -0.2706  0.2000  0.1594
    1W        W62788  15.188  26.550   7.211  0.2573  0.1676  0.0997
    1W        W62789   6.760  22.733   8.872 -0.1179  0.4124 -0.0171
    1W        W62790   3.073  28.180   8.566 -0.2193 -0.2179 -0.2652
    1W        W62791   7.890  14.037   7.053 -0.2182 -0.3874  0.1400
    1W        W62792  26.668   8.141   7.016  0.2584  0.0073  0.0328
    1W        W62793  21.413  25.539   2.030 -0.3760  0.0592 -0.3532
    1W        W62794  24.480  25.066   8.268  0.0871 -0.1294  0.1573
    1W        W62795  12.740  29.416   2.938 -0.2352  0.3106  0.1800
    1W        W62796  19.468   3.764   3.164  0.2325  0.0326 -0.0206
    1W        W62797  23.875   9.158   7.360 -0.1418 -0.4760 -0.1060
    1W        W62798  28.944  13.089   6.999  0.1551  0.2516  0.3338
    1W        W62799  24.000  24.205   8.153  0.0579 -0.3778 -0.1256
    1W        W62800   7.248  25.648   7.273 -0.3486  0.2760 -0.0263
    1W        W62801   3.792  26.555   1.039 -0.0019 -0.0969  0.3799
    1W        W62802  14.865  18.112   8.297  0.0179  0.2140 -0.0839
    1W        W62803   1.329  11.621   6.248 -0.0206  0.0121  0.2462
    1W        W62804   4.552   9.463   9.137  0.1836  0.1651  0.1653
    1W        W62805  28.986  16.524   6.742 -0.0739  0.2602  0.0194
    1W        W62806  10.157  11.435   8.303  0.3635 -0.0716  0.4807
    1W        W62807  19.628  22.980   9.398  0.2555  0.1865  0.4053
    1W        W62808  11.713  15.032   9.153  0.3476  0.2081  0.2484
    1W        W62809   4.752  24.346   0.010 -0.0933  0.0909  0.1416
    1W        W62810   5.848  21.958   0.441 -0.1475  0.0267  0.3979
    1W        W62811  21.644  26.452   7.476  0.4859 -0.1177  0.1490
    1W        W62812  17.828  13.785   1.486  0.4497 -0.1179  0.1786
    1W        W62813  17.826  20.034   0.879 -0.0702 -0.1455 -0.3629
    1W        W62814  15.091  10.316   0.790 -0.3176  0.0681  0.0247
    1W        W62815  27.874  28.408   8.947 -0.2405  0.1193  0.1389
    1W        W62816  14.863  27.641   6.408 -0.0817 -0.0541  0.0770
    1W        W62817   1.510  22.550   6.114 -0.1616  0.3756 -0.0849
    1W        W62818  15.537  17.583   8.419  0.2337  0.4371  0.1726
    1W        W62819  23.839  12.180   1.335  0.0872 -0.2431  0.0963
    1W        W62820  26.119  21.930   6.957 -0.0374 -0.0583 -0.1663
    1W        W62821   6.973  22.175   5.972 -0.0864  0.1161 -0.5096
    1W        W62822  20.935  19.265   0.134 -0.0815  0.2359 -0.2360
    1W        W62823  15.971   9.981   7.130  0.0650  0.1442  0.0920
    1W        W62824  28.113  14.203   5.804 -0.2956  0.0573  0.0473
    1W        W62825  24.999   7.070   6.999 -0.1007  0.3083  0.1890
    1W        W62826  29.605   7.114   7.173 -0.0083  0.0695  0.0244
    1W        W62827  21.166  16.494   7.007  0.3354  0.1587  0.2654
    1W        W62828  29.017  12.142   7.547 -0.2865 -0.3050 -0.2379
    1W        W62829  12.500  21.250   7.359  0.2193  0.0653  0.1768
    1W        W62830  18.219  16.233   8.040 -0.2185 -0.2959 -0.0397
    1W        W62831  10.262  21.607   0.995  0.3106 -0.1569  0.0848
    1W        W62832   8.133  18.020   6.664  0.1686 -0.0741  0.1236
    1W        W62833  14.801   9.318   2.036 -0.0773 -0.1031  0.1030
    1W        W62834   6.217   3.042   1.278 -0.0968 -0.0235  0.1150
    1W        W62835   8.455   5.821   7.537 -0.1131 -0.1579 -0.1924
    1W        W62836  10.925  13.659   8.760 -0.2061  0.0389  0.1689
    1W        W62837  21.852   9.817   2.165 -0.0867  0.0259  0.0209
    1W        W62838   0.455  19.854   5.509  0.1740  0.0803 -0.0434
    1W        W62839  27.096  26.830   2.620 -0.1250  0.3546 -0.2483
    1W        W62840  19.726  19.729   8.166  0.0271 -0.5114 -0.0013
    1W        W62841  15.698  26.322   7.924 -0.0826  0.1595  0.0592
    1W        W62842   0.672  13.867   7.479 -0.1285  0.0365 -0.2611
    1W        W62843   2.767  13.047   0.558  0.0041 -0.2656  0.1876
    1W        W62844   0.343  19.348   9.319  0.1260 -0.1781 -0.0149
    1W        W62845   3.400  20.181   5.656  0.0448 -0.3595 -0.3198
    1W        W62846  10.281   4.520   7.218  0.1122  0.0418 -0.0729
    1W        W62847   5.667  16.452   8.832  0.0710 -0.0487 -0.4421
    1W        W62848  17.004  18.150   1.472  0.1766 -0.0328 -0.8004
    1W        W62849  28.356  13.312   8.275  0.1541 -0.3284  0.0316
    1W        W62850  20.757   8.891   0.945  0.1565  0.0469  0.0803
    1W        W62851  29.356  18.439   6.298  0.1763 -0.3109  0.0321
    1W        W62852  10.150  13.051   8.922  0.4250 -0.3205  0.1425
    1W        W62853   7.465  16.162   9.274  0.2342 -0.2200 -0.2534
    1W        W62854  11.535  24.533   1.361 -0.4016 -0.3029  0.0384
    1W        W62855  27.221  20.797   5.893  0.0456  0.0607 -0.1730
    1W        W62856  23.006  24.976   3.304 -0.1055 -0.0570  0.1503
    1W        W62857  27.724   5.912   8.211 -0.0862  0.0582  0.2321
    1W        W62858   9.292   2.664   2.633 -0.2154 -0.2210  0.0789
    1W        W62859  14.718  17.128   7.566 -0.0064  0.1160  0.0131
    1W        W62860   1.543  13.442   0.973 -0.2614 -0.2387  0.2429
    1W        W62861  13.023   7.304   3.631 -0.1793 -0.3033 -0.3278
    1W        W62862  22.864  24.713   9.401  0.0731  0.1294 -0.0648
    1W        W62863  27.885  13.946   0.072 -0.1042  0.1629 -0.2096
    1W        W62864  10.975  14.641   1.483  0.0809 -0.0910  0.3118
    1W        W62865  15.117  27.939   8.303 -0.2183 -0.3539 -0.0292
    1W        W62866   3.478  10.235   8.268  0.2837  0.1219 -0.0507
    1W        W62867   4.251  19.953   0.004 -0.2250  0.0345 -0.1656
    1W        W62868  22.939  26.070   2.122  0.1482 -0.0623 -0.1356
    1W        W62869  19.185  29.207   1.167  0.2345 -0.1246  0.1506
    1W        W62870  29.761   0.965   8.025  0.0380  0.2427 -0.0877
    1W        W62871   3.044   2.811   8.317  0.3572 -0.1337 -0.0572
    1W        W62872   0.181  27.503   1.263 -0.1047 -0.0313 -0.0832
    1W        W62873   2.523  28.320   7.478  0.0798  0.0227 -0.2868
    1W        W62874   9.920  20.243   8.635  0.1106  0.0681  0.1377
    1W        W62875  20.858  21.885   8.793 -0.1880  0.1897  0.0684
    1W        W62876  28.039   6.795   0.804 -0.0436  0.3562 -0.0189
    1W        W62877  12.013  29.256   0.808  0.1140  0.1811 -0.0701
    1W        W62878  23.868  18.807   8.088  0.2102  0.2675 -0.1395
    1W        W62879  22.096  27.335   7.942 -0.3178  0.0063  0.5171
    1W        W62880  26.905  22.062   0.967  0.2315  0.0885  0.1060
    1W        W62881  28.374  20.168   6.596  0.1485  0.0224  0.0683
    1W        W62882  27.686  29.283   9.003  0.0439 -0.1409  0.0462
    1W        W62883   4.487  13.581   8.381  0.1966 -0.1044 -0.2119
    1W        W62884  24.234   8.582   1.794 -0.0948  0.2272 -0.1564
    1W        W62885  25.802  19.871   7.876 -0.0026  0.5048 -0.1447
    1W        W62886   6.879  20.076   8.728  0.6717  0.0848  0.1174
    1W        W62887   4.399  29.839   7.973 -0.0400 -0.1319  0.0116
    1W        W62888  10.465  28.896   2.307  0.4344  0.1252 -0.3140
    1W        W62889  20.270  24.833   0.398 -0.0515  0.1479  0.1951
    1W        W62890  22.913   1.202   6.508  0.0406 -0.0885 -0.1600
    1W        W62891  11.384   2.516   9.165  0.0946  0.0177  0.0771
    1W        W62892  15.833  23.772   8.137 -0.1022  0.2000  0.1936
    1W        W62893  14.172  14.854   0.153 -0.1264 -0.1253  0.0144
    1W        W62894  27.250  14.122   5.786 -0.0199  0.5018  0.2928
    1W        W62895  12.564  25.535   7.545  0.1344 -0.2136  0.2386
    1W        W62896  27.120   5.340   3.262 -0.2623  0.0866 -0.2953
    1W        W62897   7.402  20.702   9.067 -0.0719  0.0681  0.0833
    1W        W62898   9.233  22.459   0.557 -0.1094  0.1703  0.0929
    1W        W62899   7.155  14.454   7.625 -0.1180 -0.0943  0.1536
    1W        W62900  16.101   3.045   0.605  0.2409 -0.0346  0.1928
    1W        W62901  14.844   7.085   1.466  0.0003  0.0721 -0.0503
    1W        W62902  19.612  27.247   1.908  0.0134  0.1362 -0.0007
    1W        W62903  24.113   1.029   1.995  0.1388  0.2569 -0.1287
    1W        W62904   6.996  21.411   0.525 -0.5318  0.1683 -0.2625
    1W        W62905   8.408   1.032   8.570  0.2251 -0.3679  0.0706
    1W        W62906  18.116   4.851   1.063 -0.1225  0.1469 -0.0319
    1W        W62907  24.492  17.027   1.602 -0.0812 -0.0367  0.2895
    1W        W62908   2.204  17.907   1.929 -0.0045  0.1587 -0.0762
    1W        W62909  23.832   1.282   0.731 -0.0455 -0.0634  0.1029
    1W        W62910  24.917   6.880   0.238  0.0872  0.0154 -0.1421
    1W        W62911  24.260  27.486   9.119 -0.1828 -0.3662 -0.1839
    1W        W62912   7.910   3.219   0.722 -0.1059  0.0364 -0.0924
    1W        W62913   3.069  11.470   0.061 -0.2130 -0.0023 -0.1074
    1W        W62914  12.631  19.580   7.593 -0.0655  0.0633 -0.2033
    1W        W62915   9.710  29.754   2.566 -0.2354 -0.0369  0.1593
    1W        W62916  17.769  10.793   6.486  0.0637 -0.0393  0.1364
    1W        W62917   9.340  21.953   9.229 -0.1801  0.2602 -0.0538
    1W        W62918  13.565  26.328   2.418 -0.0105 -0.3241  0.1007
    1W        W62919   7.754  13.357   2.898 -0.2091  0.1425  0.0052
    1W        W62920   2.048  24.960   8.183 -0.0405 -0.2012  0.0496
    1W        W62921  11.536  13.442   1.879  0.0084  0.1462 -0.0971
    1W        W62922   5.336   6.633   2.617  0.1148 -0.2790  0.1964
    1W        W62923  19.995   6.436   8.288 -0.1842  0.2453 -0.3538
    1W        W62924  26.119   3.431   9.301 -0.1417  0.0222 -0.1743
    1W        W62925  13.018  18.088   0.310 -0.3021  0.1522  0.0176
    1W        W62926  29.205  24.353   6.852 -0.4158 -0.0459 -0.0900
    1W        W62927   4.478   4.031   1.004  0.0526 -0.0402  0.0506
    1W        W62928   3.559  29.990   9.026 -0.0766  0.0521 -0.2154
    1W        W62929  28.950   3.796   1.030  0.0043 -0.0054 -0.0638
    1W        W62930   2.739  21.514   7.950  0.0385  0.1327  0.3117
    1W        W62931  13.648  27.973   7.734  0.0031 -0.1505 -0.1157
    1W        W62932  21.557  11.854   1.252  0.0209  0.1933  0.0025
    1W        W62933   1.728  24.484   7.386  0.3696 -0.1987 -0.0568
    1W        W62934  11.654  15.030   8.246  0.1714 -0.0359  0.1190
    1W        W62935  26.690  25.420   0.212 -0.0010 -0.1698  0.0067
    1W        W62936  29.990  19.057   6.711 -0.1023  0.0031  0.0221
    1W        W62937  25.725   5.781   6.708 -0.0243 -0.3069 -0.1556
    1W        W62938  16.070  10.753   7.904 -0.2515 -0.0897  0.0538
    1W        W62939   3.622   1.069   7.839  0.0883 -0.5604 -0.0481
    1W        W62940  15.334   2.404   1.401 -0.2008  0.0340 -0.1227
    1W        W62941   4.596  11.430   1.749  0.0059 -0.1801  0.1392
    1W        W62942   3.980   6.216   3.563 -0.0248  0.2924 -0.1491
    1W        W62943  20.840  10.406   6.624 -0.3798 -0.0417  0.0594
    1W        W62944  26.888   6.217   0.371  0.3664 -0.2343 -0.0742
    1W        W62945  24.818  25.287   7.980 -0.0460 -0.1279  0.0333
    1W        W62946   7.357  19.553   0.982  0.0085 -0.2452  0.0327
    1W        W62947   5.810  25.730   8.573  0.2534 -0.1119  0.4509
    1W        W62948  14.522   8.917   2.245 -0.1213  0.3693 -0.0233
    1W        W62949  28.202   1.045   7.149  0.1108  0.0349  0.0248
    1W        W62950  11.396  13.181   7.667  0.1844 -0.0871  0.1467
    1W        W62951   3.654  15.450   1.465 -0.0303 -0.2485 -0.0611
    1W        W62952  28.325  20.152   7.558  0.1249 -0.0458  0.1011
    1W        W62953  21.664   5.013   1.295 -0.1230  0.2011  0.0555
    1W        W62954   0.592  13.082   6.934  0.2598  0.0372 -0.0299
    1W        W62955  18.630  21.124   8.947  0.1438  0.2660 -0.3408
    1W        W62956  30.114  15.257   7.914  0.1608 -0.0652 -0.1858
    1W        W62957   2.134   5.160   8.334  0.0389 -0.1376 -0.0960
    1W        W62958   5.553  23.434   1.863  0.0171 -0.0936  0.1217
    1W        W62959  11.349  30.099   0.975 -0.1268  0.0914  0.2333
    1W        W62960  21.416  26.665   1.650 -0.0782 -0.1029  0.3692
    1W        W62961  24.838  15.866   8.083 -0.2954  0.0370 -0.1092
    1W        W62962  29.608   6.851   1.677 -0.0523  0.1558 -0.0775
    1W        W62963   8.465   1.649   3.140 -0.0305  0.2452  0.1820
    1W        W62964  22.861  18.013   1.842  0.2982 -0.0273  0.1466
    1W        W62965  16.989   2.982   7.702  0.0246 -0.0320  0.0650
    1W        W62966  15.927  19.287   8.982  0.0935  0.2933  0.1489
    1W        W62967   4.829   6.746   2.238 -0.1256 -0.2050 -0.0777
    1W        W62968  16.638  22.668   0.023 -0.2005  0.1553  0.1847
    1W        W62969  22.966  26.590   0.909 -0.0163  0.0399  0.0065
    1W        W62970  12.392  15.515   1.265 -0.0849 -0.4073 -0.0162
    1W        W62971   4.739   7.263   2.365  0.0610 -0.0299  0.0121
    1W        W62972  13.402  20.665   8.720 -0.0417 -0.0161  0.1743
    1W        W62973  17.809  15.375   9.098 -0.0665 -0.0935  0.0995
    1W        W62974  13.468  29.778   9.354  0.1468 -0.2103  0.0977
    1W        W62975  30.120  14.766   1.882  0.0565 -0.0652  0.2012
    1W        W62976   2.338   1.692   7.121  0.0781 -0.1074 -0.0273
    1W        W62977  15.312  24.622   9.391 -0.1337 -0.1137  0.0433
    1W        W62978  26.822   5.272   1.427 -0.2737 -0.1673 -0.0709
    1W        W62979  16.698   7.401   2.732 -0.0443 -0.1838  0.2641
    1W        W62980  26.650   6.824   0.922 -0.1926 -0.1538 -0.0581
    1W        W62981  23.399   4.214   7.400 -0.0194 -0.2138 -0.1064
    1W        W62982   8.853   6.684   8.438  0.2640  0.1540  0.1452
    1W        W62983   1.015  23.630   1.448  0.2802  0.1207  0.1276
    1W        W62984  25.170  13.482   6.474 -0.0250 -0.0242  0.1310
    1W        W62985   3.052  20.726   6.747  0.2123  0.0978  0.0455
    1W        W62986   0.287  13.773   7.879 -0.1888 -0.1236  0.3074
    1W        W62987  12.725  16.912   1.959  0.1420 -0.0430  0.0884
    1W        W62988  28.430  17.516   0.450 -0.2572 -0.2576 -0.0303
    1W        W62989  14.350  11.251   8.274 -0.0077 -0.1985  0.1282
    1W        W62990  27.531   3.442   6.739  0.0089 -0.4632 -0.2709
    1W        W62991  24.510  10.243   0.973  0.2071  0.0298  0.0987
    1W        W62992  14.899   3.331   8.557  0.2023  0.0137 -0.2304
    1W        W62993  25.994   1.615   8.179  0.0200 -0.2782 -0.0953
    1W        W62994  13.954  23.356   7.442 -0.2954  0.3815  0.1661
    1W        W62995  23.427  17.594   9.176 -0.0736  0.0714 -0.0631
    1W        W62996  11.386   8.531   7.545  0.0331 -0.1711 -0.0419
    1W        W62997   3.150  18.976   6.516 -0.1916  0.1440  0.0897
    1W        W62998   5.913   9.331   8.185  0.1432  0.1123  0.3133
    1W        W62999   9.044   8.301   8.326  0.0618 -0.0195  0.0056
    1W        W63000   3.613  23.248   7.060 -0.1030  0.2658 -0.2065
    1W        W63001   9.393  27.402   1.129 -0.1603  0.0024  0.0917
    1W        W63002   7.244   8.587   0.991  0.1710  0.0993 -0.4152
    1W        W63003  24.197   1.685   0.426 -0.3572 -0.1959  0.0217
    1W        W63004  11.390  17.942   0.200  0.0154  0.0930  0.0374
    1W        W63005  27.949  10.317   0.499  0.0488 -0.1047 -0.2255
    1W        W63006  18.866   1.378   2.064 -0.0543 -0.2114  0.0566
    1W        W63007   7.264  29.157   7.675 -0.1146 -0.0854  0.1033
    1W        W63008   9.341  16.584   2.418  0.0190 -0.0722 -0.0697
    1W        W63009   1.013   8.164   9.039  0.2467 -0.2463 -0.1721
    1W        W63010  26.483  11.696   2.300 -0.0927 -0.2407 -0.1072
    1W        W63011  28.958  27.123   0.968 -0.2246  0.0933  0.0406
    1W        W63012   4.926  24.720   5.757 -0.0656  0.1590  0.0372
    1W        W63013  12.891  18.920   0.314  0.1782 -0.1352  0.0447
    1W        W63014  29.540  19.368   7.283  0.2710 -0.0911 -0.3622
    1W        W63015  21.774  16.816   7.133 -0.2066  0.2080 -0.1718
    1W        W63016  14.419  28.196   8.536 -0.1001  0.1161 -0.0337
    1W        W63017   0.126  22.550   6.638  0.2647  0.0620  0.4746
    1W        W63018   7.322   4.300   0.284  0.1673 -0.3091 -0.0484
    1W        W63019  15.453  28.966   8.434 -0.3119 -0.1734 -0.0193
    1W        W63020   3.464  18.847   5.254 -0.0952  0.1029 -0.2417
    1W        W63021   8.018  18.579   1.014  0.0803  0.2582  0.0320
    1W        W63022   6.958   7.140   2.426  0.4333 -0.2690  0.1429
    1W        W63023  12.294   8.696   9.377 -0.2177 -0.2326 -0.2659
    1W        W63024  29.437   6.429   8.025 -0.1841  0.1678 -0.0386
    1W        W63025   3.058  26.700   6.078  0.4121 -0.1934  0.0488
    1W        W63026   8.008   6.279   1.072 -0.1783  0.0635  0.3452
    1W        W63027  11.673  15.682   0.865  0.0664 -0.1274  0.2445
    1W        W63028   3.699  12.266   7.196 -0.0841 -0.1667  0.0307
    1W        W63029   8.337  25.559   8.733  0.2185 -0.1176 -0.2573
    1W        W63030   5.641  11.624   2.426 -0.0679 -0.3572  0.1804
    1W        W63031  25.139   9.557   7.778  0.0908 -0.1436 -0.0610
    1W        W63032  24.702  16.576   1.782 -0.1946 -0.3510 -0.0497
    1W        W63033  14.986  21.043   9.225  0.2575  0.0156  0.0033
    1W        W63034   5.577   6.585   0.790  0.2496  0.1267 -0.2982
    1W        W63035   9.071   9.634   3.072  0.4298  0.0176 -0.0361
    1W        W63036  10.095  18.879   1.073  0.2545  0.4273  0.1530
    1W        W63037   2.338  28.871   8.596  0.1597 -0.2434 -0.0008
    1W        W63038   6.627  14.566   0.329  0.1600  0.0952  0.3869
    1W        W63039  26.627   6.730   0.428 -0.0648  0.1398  0.0028
    1W        W63040  29.034   5.578   7.232  0.1846 -0.1116 -0.0898
    1W        W63041  29.051  17.047   6.701  0.1589  0.1540 -0.1566
    1W        W63042   0.061   2.788   8.141 -0.0857  0.0148  0.3061
    1W        W63043  13.477  12.151   1.090  0.1833 -0.0212  0.1238
    1W        W63044  26.890  11.991   8.910 -0.1491  0.1599  0.0355
    1W        W63045  17.946  18.914   9.290 -0.3157 -0.0505 -0.0245
    1W        W63046  26.651  14.230   6.036 -0.2914 -0.1528  0.0806
    1W        W63047  20.711  21.917   2.520 -0.1369  0.0282 -0.0011
    1W        W63048  14.172  13.992   7.713  0.3305 -0.1653 -0.0357
    1W        W63049  18.669   5.600   7.748  0.1023 -0.0660 -0.2077
    1W        W63050  29.703  21.878   1.570 -0.1244 -0.0584  0.0785
    1W        W63051  21.732  29.198   1.401 -0.1583 -0.1253  0.1565
    1W        W63052  12.457  11.082   0.592 -0.1145 -0.1230 -0.0434
    1W        W63053  15.888   3.880   9.024 -0.2072 -0.4560 -0.0180
    1W        W63054  15.927  16.296   9.221 -0.1504 -0.1568  0.3278
    1W        W63055   5.651  15.300   0.335 -0.4182 -0.1351  0.0082
    1W        W63056  13.325  25.246   8.408 -0.0385 -0.1930  0.0306
    1W        W63057  28.083   3.770   2.005  0.1742 -0.1899 -0.1997
    1W        W63058  26.773   4.615   8.130  0.1265 -0.0499  0.2285
    1W        W63059  20.414  14.653   0.691  0.1817  0.0782  0.0065
    1W        W63060  14.612   5.442   8.722 -0.1504 -0.0730  0.1439
    1W        W63061  23.287   2.761   7.222 -0.0426 -0.0872  0.1309
    1W        W63062   1.488   7.320   9.363  0.1598 -0.0222  0.0002
    1W        W63063   4.993  23.119   8.555  0.2627  0.0010  0.0587
    1W        W63064  29.207  14.312   9.296 -0.0563 -0.1507  0.1099
    1W        W63065  28.127  17.077   8.077 -0.0483  0.0276 -0.1827
    1W        W63066  20.045  14.661   0.049  0.1669 -0.2199  0.0219
    1W        W63067  20.531  29.128   0.022 -0.1313  0.0430 -0.0126
    1W        W63068  19.056  16.567   8.741 -0.1613 -0.0868  0.1976
    1W        W63069   8.364  13.797   2.544 -0.0172  0.0833 -0.2434
    1W        W63070   3.706  25.520   7.424 -0.0020 -0.0396 -0.1856
    1W        W63071  22.921   9.010   6.159 -0.1771 -0.1695  0.0818
    1W        W63072  18.534  22.191   0.701  0.1222  0.0842  0.2121
    1W        W63073  13.445  28.127   7.311 -0.2102 -0.0071  0.3109
    1W        W63074   9.320   5.050   8.801  0.0446 -0.0347  0.1822
    1W        W63075  23.433   9.656   0.754  0.4163  0.1218 -0.3812
    1W        W63076   4.468   7.359   7.963  0.0518  0.1620 -0.0829
    1W        W63077  17.355   8.245   7.600  0.1627  0.0827 -0.1345
    1W        W63078  25.753  27.737   8.163  0.0168 -0.1482 -0.5330
    1W        W63079  10.128  20.435   9.022 -0.1438 -0.0016 -0.1817
    1W        W63080   6.122  10.214   8.686 -0.4177  0.1962 -0.4528
    1W        W63081   5.334   2.993   1.913  0.0055 -0.1470 -0.0178
    1W        W63082   0.729  12.101   0.646 -0.1149 -0.0123 -0.0024
    1W        W63083  28.851   8.959   1.576  0.2080 -0.3105 -0.1289
    1W        W63084  14.324   9.014   1.740 -0.1460 -0.0238 -0.0905
    1W        W63085  21.337  22.081   1.719  0.2533 -0.0544  0.0889
    1W        W63086   4.853  29.204   8.530 -0.0928  0.3683  0.0834
    1W        W63087  18.632  27.760   7.737  0.1057  0.2212  0.0081
    1W        W63088  13.170  23.490   8.106 -0.1297 -0.3019  0.2309
    1W        W63089  26.058  27.712   3.062  0.0163  0.2885  0.0927
    1W        W63090  10.075  19.605   6.739 -0.0678 -0.1264 -0.2975
    1W        W63091   4.016  29.102   2.455  0.2082  0.1298  0.1003
    1W        W63092   5.040  17.032   1.057 -0.0594  0.0259 -0.2085
    1W        W63093  11.679  10.688   9.393 -0.2104  0.4560 -0.2849
    1W        W63094  18.014  20.946   7.127  0.0436 -0.0470 -0.0160
    1W        W63095  13.843  26.755   7.516 -0.0798  0.3241  0.2901
    1W        W63096   8.843  13.586   2.424  0.2166 -0.1497  0.1363
    1W        W63097  14.351  20.958   1.129  0.1856  0.2525 -0.0068
    1W        W63098  29.127   1.222   9.048  0.0557  0.0908  0.0999
    1W        W63099  26.396  13.343   5.030  0.1264 -0.0841 -0.0203
    1W        W63100  10.012  29.003   7.498  0.0446 -0.1529  0.0463
    1W        W63101  13.449  23.063   5.854 -0.3781 -0.0652  0.0701
    1W        W63102   1.953  13.913   1.219 -0.2284 -0.0913  0.0902
    1W        W63103   6.260  22.061   6.850  0.0173  0.0592  0.0437
    1W        W63104  13.851  18.490   8.303 -0.1362  0.2356  0.0585
    1W        W63105   5.961  17.409   6.567  0.1581  0.1721 -0.1658
    1W        W63106  28.615   5.394   2.093 -0.0003 -0.1437 -0.0355
    1W        W63107   1.712   1.835   7.868 -0.0241 -0.0532  0.0696
    1W        W63108  19.061  19.740   2.828  0.0630  0.1299 -0.0709
    1W        W63109   7.309   9.765   2.115  0.1781 -0.0557 -0.1172
    1W        W63110  22.734  27.172   0.338  0.0462  0.0244  0.0583
    1W        W63111  10.937  24.537   9.297  0.2089  0.0158 -0.0553
    1W        W63112   4.579  23.340   1.899 -0.1346 -0.2092  0.0532
    1W        W63113  12.396  25.869   2.442  0.0839  0.1957  0.1058
    1W        W63114   8.972   7.108   8.142  0.0169 -0.0982 -0.0213
    1W        W63115  10.447  12.985   2.693 -0.1622  0.1817  0.1529
    1W        W63116  10.876  22.646   8.582  0.0298  0.1672  0.1519
    1W        W63117  28.048  16.526   7.021 -0.0200 -0.1026  0.2391
    1W        W63118  16.366  25.368   2.088 -0.0388  0.1787 -0.2917
    1W        W63119   9.835   6.833   7.247 -0.1645 -0.0709 -0.0351
    1W        W63120  22.126  11.906   7.252 -0.0843 -0.0039  0.2374
    1W        W63121   6.569  11.779   7.383  0.0465 -0.0620  0.0520
    1W        W63122  26.836  11.238   6.543  0.0849  0.1607 -0.1702
    1W        W63123  18.953   2.171   7.310 -0.1250 -0.1190 -0.2373
    1W        W63124  27.830   8.704   8.373 -0.0064 -0.1639  0.2015
    1W        W63125  29.350  11.481   8.061  0.1273 -0.1559  0.0439
    1W        W63126  16.956   2.626   3.152 -0.0897  0.1575 -0.0852
    1W        W63127  20.332  18.809   7.329 -0.2178 -0.0639  0.1448
    1W        W63128  22.362  12.524   0.179  0.0392 -0.0567 -0.1847
    1W        W63129  12.907  25.942   7.327 -0.1189  0.0164 -0.0933
    1W        W63130   6.412   7.495   1.579  0.0245 -0.0703  0.0143
    1W        W63131  17.968   5.652   1.899 -0.1242 -0.4938  0.0632
    1W        W63132  23.333  10.513   6.220 -0.1083  0.0444 -0.2232
    1W        W63133  29.633  19.309   6.392 -0.1133 -0.3358  0.0726
    1W        W63134  24.962  22.001   2.129 -0.1060 -0.3782 -0.1579
    1W        W63135   9.072  22.191   7.200 -0.0299  0.2489  0.3505
    1W        W63136  13.246  26.352   2.883 -0.3989 -0.1882  0.2115
    1W        W63137  21.821   0.566   1.039  0.1611  0.2258  0.1827
    1W        W63138   5.426   3.766   3.162  0.1219  0.3870  0.1874
    1W        W63139  21.171   9.805   1.333  0.1227 -0.0630 -0.1816
    1W        W63140  10.139  25.550   0.122 -0.0946  0.0485 -0.0366
    1W        W63141  14.225   9.029   8.526 -0.0373  0.4257 -0.2234
    1W        W63142  11.780  16.876   0.314  0.0862  0.0104  0.2017
    1W        W63143  16.077  24.971   2.176  0.0649  0.2195  0.1220
    1W        W63144  11.021  15.006   8.387  0.3235  0.0344  0.0698
    1W        W63145  29.811  12.231   7.705  0.1180 -0.2443 -0.2134
    1W        W63146   0.930   6.051   1.533  0.0353 -0.3169  0.3653
    1W        W63147   8.841  25.540   8.726 -0.1350  0.3121  0.0021
    1W        W63148  10.944   6.004   1.167 -0.1079  0.2215  0.4261
    1W        W63149  15.596  19.159   1.950  0.0907  0.2685  0.0385
    1W        W63150  21.089   1.906   0.623  0.4438 -0.0800 -0.0420
    1W        W63151  11.909  20.332   6.624  0.1927 -0.1406 -0.0851
    1W        W63152  24.939   1.954   9.099  0.1822  0.1893 -0.0805
    1W        W63153   6.316   8.790   2.602 -0.2158 -0.1215  0.2229
    1W        W63154  12.053  13.793   0.497 -0.1841 -0.3192 -0.1436
    1W        W63155  23.373  12.495   7.327  0.0853  0.0324  0.3091
    1W        W63156   2.745  15.245   1.551 -0.0849 -0.3095 -0.0067
    1W        W63157  23.088  10.773   2.102 -0.1799 -0.0453  0.0364
    1W        W63158   5.235   8.906   1.763 -0.1072 -0.0541 -0.2517
    1W        W63159   9.274  18.385   1.237  0.2071 -0.1841 -0.1659
    1W        W63160   1.087  12.444   6.805 -0.0789 -0.1965  0.1141
    1W        W63161   3.851   8.399   7.902  0.0116  0.1537  0.1175
    1W        W63162   9.845  20.366   8.098 -0.1511  0.0783 -0.3065
    1W        W63163  26.256   2.112   6.708  0.1122  0.1620 -0.1544
    1W        W63164  16.448   8.422   2.903  0.0510 -0.1332  0.1265
    1W        W63165   6.844  10.859   7.767 -0.2708 -0.0384 -0.0505
    1W        W63166  24.309  25.148   7.154 -0.2088 -0.1639 -0.1886
    1W        W63167  16.135   0.565   0.470 -0.2257  0.1153 -0.1670
    1W        W63168   1.593  22.204   8.733  0.1844 -0.0861 -0.0446
    1W        W63169  20.594  15.448   8.995  0.1665  0.5180 -0.1981
    1W        W63170   6.212  10.956   6.938  0.1931 -0.0368 -0.4924
    1W        W63171  14.733   1.442   9.091  0.2431  0.3948 -0.3779
    1W        W63172  27.595  25.186   7.763 -0.2592  0.1944 -0.0881
    1W        W63173  29.387  11.014   9.067 -0.0485 -0.2072  0.3414
    1W        W63174  16.497  11.702   8.801  0.2042 -0.1591 -0.1455
    1W        W63175   8.413  14.216   9.082  0.1264  0.2042  0.0713
    1W        W63176   6.238  26.893   1.329 -0.1939 -0.0186 -0.3049
    1W        W63177  10.648  19.375   9.393 -0.0768 -0.0277 -0.3513
    1W        W63178   7.923  11.879   2.217 -0.0673  0.0505 -0.1984
    1W        W63179  10.891  23.825   7.741  0.6775 -0.1619 -0.2116
    1W        W63180  18.131  24.818   9.057 -0.2058 -0.1936  0.0354
    1W        W63181  18.648   3.586   8.468  0.0158 -0.0609 -0.1538
    1W        W63182  19.290  27.044   7.259  0.0391 -0.0437 -0.1005
    1W        W63183  19.838  16.716   1.312 -0.0312  0.1145  0.2224
    1W        W63184  16.902  16.872   7.779  0.0241 -0.0247  0.0038
    1W        W63185  18.874   5.240   0.767 -0.1712  0.1236  0.1148
    1W        W63186   3.143  28.452   2.859  0.1368 -0.1359 -0.0203
    1W        W63187  17.769  15.572   1.345 -0.2838 -0.1027 -0.2672
    1W        W63188  12.527  25.676   9.188  0.1441  0.1110  0.2079
    1W        W63189  18.314  16.048   7.445 -0.1840 -0.0517 -0.3935
    1W        W63190  18.323   3.694   2.612 -0.1433 -0.7725  0.1270
    1W        W63191  28.156  12.033   0.176 -0.0967  0.4014  0.1549
    1W        W63192   1.000   3.986   2.784  0.2988  0.1981 -0.0578
    1W        W63193  23.326  27.276   1.852  0.0573 -0.1533  0.0400
    1W        W63194   9.791  28.457   0.308  0.0391 -0.2149  0.2028
    1W        W63195  13.526  18.091   8.058 -0.1006 -0.0531 -0.2727
    1W        W63196  28.133  21.421   0.902 -0.1890  0.0001  0.1357
    1W        W63197  23.482  17.139   7.367  0.1869  0.3089 -0.0835
    1W        W63198   2.961  10.714   7.623 -0.0248  0.2363  0.3893
    1W        W63199  15.950  27.989   9.377 -0.0122  0.1241 -0.1142
    1W        W63200   9.952  21.200   1.853 -0.0239 -0.1016  0.1164
    1W        W63201   9.420  19.248   6.800  0.1156  0.0892  0.1660
    1W        W63202  28.413   4.001   0.325 -0.0977  0.0781 -0.1873
    1W        W63203   6.985   4.436   8.633 -0.0451  0.4284  0.1467
    1W        W63204  26.074   6.708   6.765 -0.0414 -0.0335 -0.0374
    1W        W63205  27.369  22.842   1.543  0.0898  0.0988 -0.1811
    1W        W63206   3.199  20.402   6.436 -0.1102 -0.1707 -0.1364
    1W        W63207  21.758   6.020   1.719  0.0375 -0.0181 -0.0003
    1W        W63208  27.366   3.980   8.686  0.2150 -0.0406  0.2135
    1W        W63209  17.914  11.608   8.829  0.0637 -0.0789  0.1000
    1W        W63210  15.622   4.622   3.731 -0.1934  0.2574 -0.1796
    1W        W63211  28.583   2.699   0.352  0.1122  0.1220 -0.1712
    1W        W63212  25.462   4.562   6.309  0.0052  0.0592 -0.3558
    1W        W63213  10.466   6.186   6.916 -0.1133 -0.1642 -0.0172
    1W        W63214   8.596  26.208   0.974 -0.0357  0.0027  0.0603
    1W        W63215  16.584   8.005   8.133  0.0365 -0.3292  0.0396
    1W        W63216   6.986  30.029   0.998 -0.0667  0.0729 -0.2894
    1W        W63217  12.029   2.309   3.822  0.1578 -0.0974 -0.0796
    1W        W63218   7.048  14.665   2.251 -0.1254  0.4083  0.2723
    1W        W63219  16.615   2.834   8.447  0.1159 -0.2243  0.1450
    1W        W63220   6.610  16.930   6.903  0.0475 -0.0119  0.1011
    1W        W63221  15.432  16.700   8.288 -0.2134 -0.0131 -0.0252
    1W        W63222  21.870  27.634   8.249 -0.0853 -0.1153 -0.0449
    1W        W63223  26.264  29.617   1.455  0.0473  0.1967  0.1417
    1W        W63224  15.148   0.743   7.552  0.0978 -0.1072  0.2078
    1W        W63225  25.470  29.770   6.072  0.0785  0.1355 -0.0350
    1W        W63226  24.785  14.557   5.701  0.1064 -0.0042  0.0122
    1W        W63227  21.675  19.933   2.035  0.1952 -0.1004 -0.1048
    1W        W63228   1.127  19.849   0.903 -0.0936 -0.4989  0.2144
    1W        W63229  13.709  26.754   8.606  0.1126  0.0115 -0.0185
    1W        W63230   8.342  22.286   0.632  0.1211 -0.3266 -0.0128
    1W        W63231  13.811   3.202   3.042 -0.1092  0.0325  0.1188
    1W        W63232  12.551  12.105   2.159  0.0291 -0.1274  0.1315
    1W        W63233  10.958   2.841   1.717  0.2356  0.0698 -0.2054
    1W        W63234   5.225   2.374   3.141  0.1790 -0.1529 -0.1053
    1W        W63235   9.738   9.250   7.668 -0.3553 -0.0521  0.2425
    1W        W63236   1.500  14.387   1.326 -0.1185 -0.1522 -0.0123
    1W        W63237  21.789  26.107   8.475 -0.2893  0.0538 -0.3071
    1W        W63238   9.940   2.411   7.133 -0.0761 -0.0796  0.0163
    1W        W63239  21.514   6.914   9.089 -0.0272  0.1054 -0.3383
    1W        W63240  15.935  19.185   6.640 -0.2077  0.0331  0.0046
    1W        W63241   4.893   6.126   2.036  0.0402 -0.1242 -0.1215
    1W        W63242  18.423  11.292   0.583 -0.0158 -0.2642 -0.1374
    1W        W63243  14.042   4.152   6.766  0.1311 -0.2272  0.0113
    1W        W63244  21.126  12.752   7.933  0.0826 -0.1791 -0.4184
    1W        W63245  22.722  17.753   0.647  0.1306 -0.1414 -0.0519
    1W        W63246  10.040  14.143   7.563  0.2114 -0.3147  0.2322
    1W        W63247   2.216  17.334   5.531 -0.0208 -0.4642  0.3103
    1W        W63248  23.536  18.437   0.087  0.1936 -0.2095 -0.1979
    1W        W63249  23.490   2.587   8.191  0.3155  0.2321 -0.1395
    1W        W63250   1.092   7.766   2.761 -0.0026 -0.1364 -0.1890
    1W        W63251   5.010  21.068   7.508 -0.1783 -0.1362  0.2280
    1W        W63252  18.437  22.437   1.344  0.2681  0.0171  0.0556
    1W        W63253  11.346   1.324   2.252 -0.1609 -0.1913  0.1110
    1W        W63254   1.168  15.144   7.496 -0.1365  0.1634  0.1652
    1W        W63255  26.341  21.904   7.398 -0.0123 -0.1598  0.2302
    1W        W63256   4.331  27.332   0.649 -0.0750 -0.2311 -0.0323
    1W        W63257   2.197   1.466   8.567  0.0310  0.0117  0.3378
    1W        W63258  25.466  26.182   2.207 -0.0600  0.1653 -0.0125
    1W        W63259  26.463  24.282   9.234 -0.0897  0.1329  0.0938
    1W        W63260   6.508  25.669   6.526  0.0375 -0.0663 -0.0762
    1W        W63261  26.162   9.579   9.254  0.0554 -0.0184  0.3100
    1W        W63262  11.058  11.325   8.522  0.2024  0.2317  0.0231
    1W        W63263  23.557   4.905   2.723  0.0155  0.3479  0.3874
    1W        W63264  21.852  12.084   0.463  0.2384  0.2357 -0.0013
    1W        W63265  18.518  16.286   0.136 -0.2260 -0.0018  0.1742
    1W        W63266   4.073  29.253   0.616  0.2024  0.3937 -0.0618
    1W        W63267  28.559   3.084   8.412 -0.2116  0.1192 -0.1339
    1W        W63268  16.850  20.351   0.654 -0.5206 -0.1563  0.0783
    1W        W63269   9.053  23.472   6.494 -0.0283 -0.0199  0.1426
    1W        W63270  20.527   2.834   1.789  0.2607 -0.1705  0.1483
    1W        W63271  14.840   5.837   0.312 -0.0608 -0.1698  0.2709
    1W        W63272   7.308  17.311   7.395 -0.2667 -0.1960  0.1047
    1W        W63273  28.590   1.189   2.372  0.1661 -0.0376  0.2136
    1W        W63274  22.961   1.201   8.950  0.0194 -0.4648  0.2050
    1W        W63275  26.268  15.700   7.243  0.0453  0.0158  0.0459
    1W        W63276   7.316   0.407   0.916  0.1172 -0.2696  0.2562
    1W        W63277  28.242  12.903   9.205  0.0295  0.1939 -0.0311
    1W        W63278  17.637  14.868   7.691 -0.0266  0.1401 -0.3785
    1W        W63279  17.277  19.767   0.065 -0.0832 -0.2750  0.1771
    1W        W63280  14.626   2.635   3.143  0.0994 -0.0621 -0.1417
    1W        W63281  28.084  26.734   6.244  0.1714  0.5851 -0.0096
    1W        W63282   8.386  15.205   6.639  0.2634 -0.4275  0.1051
    1W        W63283   6.538  30.107   2.852  0.1222  0.4518  0.0969
    1W        W63284   4.052   7.871   9.011 -0.0939  0.0081  0.3918
    1W        W63285  18.746  25.669   8.683 -0.0813  0.2214 -0.1393
    1W        W63286  11.793   8.697   7.809  0.0819 -0.2488  0.0524
    1W        W63287  13.528  15.922   8.739  0.0363 -0.4205 -0.0447
    1W        W63288  14.364  11.946   1.182  0.4355 -0.1577  0.0513
    1W        W63289  19.593  16.428   8.643  0.1738 -0.2328 -0.3419
    1W        W63290  18.295  16.728   8.272 -0.0456 -0.1380 -0.1259
    1W        W63291   7.666   5.289   7.957  0.0109  0.1970 -0.1409
    1W        W63292  27.366   2.750   9.226  0.0453  0.0907  0.0902
    1W        W63293   2.094  26.725   0.020  0.0211  0.3254  0.2680
    1W        W63294  17.350   7.840   8.467  0.3042  0.1197 -0.2546
    1W        W63295   1.765   8.779   7.716  0.3375  0.1476  0.1147
    1W        W63296  28.945  18.293   2.183  0.1262 -0.3210  0.1149
    1W        W63297  18.235  25.247   3.559  0.0017  0.0526  0.1240
    1W        W63298  17.678   8.570   9.162  0.1137  0.0259  0.0913
    1W        W63299   6.773  20.050   8.208  0.0092  0.0578  0.3974
    1W        W63300   5.663   4.442   2.217 -0.2522 -0.4745  0.1044
    1W        W63301   9.195  13.617   0.947 -0.0419 -0.1470 -0.2002
    1W        W63302  25.659  27.578   7.463  0.2454  0.0673  0.3267
    1W        W63303   8.586  18.256   0.488  0.0060 -0.3285  0.4311
    1W        W63304  12.066  11.663   7.717 -0.1733  0.0016  0.0666
    1W        W63305   6.003   9.976   0.210 -0.0148 -0.1130  0.3558
    1W        W63306  17.259  25.838   3.131 -0.2797  0.1741  0.0847
    1W        W63307  21.886  13.562   8.870 -0.3346 -0.1524  0.2303
    1W        W63308  23.371   2.429   0.541  0.0690  0.1453  0.0930
    1W        W63309  26.799   7.638   2.060  0.0017 -0.2167  0.0189
    1W        W63310  27.881  11.310   7.675 -0.0114 -0.0427  0.2803
    1W        W63311  26.083  25.474   1.964 -0.0897  0.0855 -0.0188
    1W        W63312   9.202  27.506   0.662  0.0730 -0.0195  0.0387
    1W        W63313  12.373  20.461   8.558  0.1537 -0.0537  0.2264
    1W        W63314   6.271   5.666   9.292  0.2022  0.1044 -0.1686
    1W        W63315  29.740   4.627   9.404  0.2188  0.0556 -0.0107
    1W        W63316   6.981  10.371   3.021  0.0553  0.2598 -0.2198
    1W        W63317  27.697  12.928   5.502  0.1016 -0.0295  0.1575
    1W        W63318  23.273  12.819   1.296  0.0178 -0.3219  0.1829
    1W        W63319  14.130   4.587   0.088  0.2450  0.1164 -0.1786
    1W        W63320  17.675  23.549   7.935 -0.0557 -0.3017  0.1071
    1W        W63321   4.308  22.994   5.303 -0.2142  0.2068 -0.1000
    1W        W63322  17.093   1.365   7.903  0.0988 -0.3343  0.0952
    1W        W63323  25.159   0.988   2.452 -0.2325 -0.0780 -0.4070
    1W        W63324  29.742  14.476   7.722  0.0153  0.1886  0.2576
    1W        W63325  24.819  10.536   9.137  0.0235 -0.1166 -0.2240
    1W        W63326  16.822   1.573   2.822  0.1012  0.1319 -0.2011
    1W        W63327  20.564  14.367   0.194 -0.0822 -0.0119 -0.2367
    1W        W63328  21.911  25.183   6.890 -0.0450  0.0406 -0.1540
    1W        W63329  17.845  20.303   2.307  0.0207 -0.1891 -0.0108
    1W        W63330  10.777  14.816   7.373  0.1127  0.1340  0.2387
    1W        W63331  27.581  18.798   0.326  0.0068  0.1475 -0.0692
    1W        W63332   4.454  29.023   0.513 -0.0686 -0.0340 -0.0408
    1W        W63333   1.004   2.278   1.861 -0.1585  0.4267 -0.1543
    1W        W63334  23.277  14.725   8.568  0.1552 -0.1904  0.0948
    1W        W63335   4.105   9.867   0.662  0.1246 -0.0188 -0.2315
    1W        W63336  22.052   6.304   7.707 -0.1545  0.1589 -0.2345
    1W        W63337  23.986   0.589   0.446 -0.0541 -0.0183 -0.2206
    1W        W63338   3.288  16.972   6.800  0.0642  0.1132 -0.1181
    1W        W63339   1.144  25.062   8.279  0.1029 -0.1357  0.0072
    1W        W63340  22.790  29.867   3.450  0.3101 -0.0968 -0.0415
    1W        W63341  29.406   3.811   8.848 -0.1267  0.0642  0.1690
    1W        W63342  26.257  17.555   8.323 -0.1449  0.3426 -0.0174
    1W        W63343  15.952   6.346   2.782 -0.1788 -0.3525  0.0002
    1W        W63344  19.146  10.546   1.865  0.0823  0.0888  0.0285
    1W        W63345   4.403  16.910   0.983 -0.0457 -0.1399 -0.1427
    1W        W63346  12.867  12.438   1.728  0.1683  0.1353 -0.0663
    1W        W63347   1.442   8.268   9.304  0.3516 -0.1129 -0.0574
    1W        W63348   8.167  19.215   8.399 -0.1343 -0.0320 -0.0741
    1W        W63349  23.283   2.430   9.221 -0.0338  0.0836 -0.3331
    1W        W63350  13.875  11.498   8.403 -0.0751  0.0817 -0.0949
    1W        W63351   4.391  11.600   6.722  0.1247 -0.1833 -0.1681
    1W        W63352  16.715  16.094   1.289  0.0901 -0.1492  0.0514
    1W        W63353  25.665  12.386   6.019 -0.0641  0.0314 -0.0652
    1W        W63354   5.791  23.774   1.578  0.0513 -0.1031 -0.2496
    1W        W63355   2.772   3.406   7.697  0.0641  0.2507 -0.2729
    1W        W63356  11.597   5.422   1.548  0.1203  0.1958  0.1873
    1W        W63357  18.064  24.929   2.531 -0.0918  0.4003 -0.0179
    1W        W63358  25.626  15.973   0.373  0.3438  0.2780  0.1029
    1W        W63359  26.480  10.986   1.079 -0.2573 -0.0166  0.2671
    1W        W63360   0.994   2.908   7.396 -0.1020  0.0516  0.1812
    1W        W63361  13.696   1.299   3.776  0.1784 -0.1531  0.5704
    1W        W63362  21.862  22.046   1.962  0.1921 -0.3475  0.0671
    1W        W63363  13.547   3.025   8.305  0.2245  0.0493 -0.1040
    1W        W63364   5.769   3.383   1.243 -0.1835 -0.2687  0.1601
    1W        W63365   0.859   5.818   1.063  0.0175  0.0467  0.1331
    1W        W63366  23.506  24.172   0.929 -0.0480  0.3666 -0.0126
    1W        W63367  24.010  20.327   1.171 -0.0095 -0.0662 -0.1402
    1W        W63368   0.744  10.822   9.106 -0.1889  0.1104  0.4307
    1W        W63369  13.759   5.556   3.393 -0.2152  0.3441  0.1167
    1W        W63370  21.371  10.062   6.376  0.2042  0.3072  0.1174
    1W        W63371   7.785  23.714   5.733 -0.0567 -0.1889 -0.2023
    1W        W63372  10.891  16.076   7.452 -0.2599  0.1727 -0.1537
    1W        W63373  29.942  15.865   0.444 -0.1764  0.0363  0.0467
    1W        W63374  24.245  12.197   7.628 -0.0957 -0.1687  0.2385
    1W        W63375   4.039   9.404   0.497  0.1688  0.1821  0.2892
    1W        W63376  17.466  21.937   8.506 -0.1847 -0.5480  0.0673
    1W        W63377   2.067  19.267   0.953 -0.1274 -0.0826  0.1631
    1W        W63378  27.074  30.096   9.128  0.3119  0.1767 -0.1358
    1W        W63379  14.747  20.286   7.559 -0.1419 -0.0323 -0.1197
    1W        W63380   2.499   7.514   1.425 -0.0429  0.2854 -0.1668
    1W        W63381   8.886  26.644   0.808 -0.1173  0.1072 -0.0132
    1W        W63382   6.225  28.123   9.312  0.0248  0.3074 -0.0428
    1W        W63383  25.688  28.973   0.110 -0.1070 -0.2114 -0.2359
    1W        W63384  24.627  12.472   5.850  0.0904 -0.0693 -0.1212
    1W        W63385  23.357  13.938   8.325  0.1381 -0.0101  0.1120
    1W        W63386  29.595  16.813   5.551  0.0112  0.0618  0.2515
    1W        W63387  15.485  11.169   0.992 -0.0914 -0.3669 -0.0622
    1W        W63388  11.803  17.094   9.183  0.3519 -0.1210 -0.1961
    1W        W63389   4.846  22.377   5.873 -0.0093  0.1122  0.1066
    1W        W63390  21.762  20.417   2.019 -0.1144 -0.1837  0.0312
    1W        W63391  20.583   8.287   1.973  0.0058  0.1126  0.0289
    1W        W63392   6.227  16.147   1.064  0.0444  0.0154 -0.2514
    1W        W63393   2.760   6.167   7.923 -0.4415  0.2328 -0.0347
    1W        W63394   1.187  10.297   6.644 -0.0425 -0.0951 -0.1224
    1W        W63395   5.385   3.722   3.717  0.6087 -0.0482 -0.1162
    1W        W63396   1.656   7.965   1.921  0.3014 -0.2369  0.0688
    1W        W63397   3.714  27.795   8.760  0.3319 -0.0698  0.5040
    1W        W63398  27.270  29.476   7.024 -0.0699 -0.0168  0.0495
    1W        W63399  24.632   4.085   8.117  0.1470 -0.0799  0.0257
    1W        W63400  19.355  10.036   8.305 -0.2113  0.1681 -0.0859
    1W        W63401  13.653   1.550   3.329  0.1414  0.1353  0.2372
    1W        W63402  10.823   5.350   2.817  0.1396  0.0315  0.0195
    1W        W63403  26.729  25.872   0.343  0.2939 -0.2902  0.3535
    1W        W63404   3.563   9.769   1.549  0.0224  0.0403  0.2349
    1W        W63405  16.995  18.629   6.671  0.0858  0.2050 -0.0427
    1W        W63406   5.939   3.655   8.984 -0.2770  0.2620 -0.1645
    1W        W63407  22.101   5.136   8.445 -0.2976 -0.1732 -0.1767
    1W        W63408  23.973   6.011   8.474 -0.1213  0.1244  0.1093
    1W        W63409  19.624   4.148   1.196  0.1053  0.2267 -0.3961
    1W        W63410  29.400  20.547   9.065  0.0675  0.1059 -0.0338
    1W        W63411  18.546   4.391   0.396  0.0129  0.3791  0.1405
    1W        W63412  25.566  29.222   1.012  0.1769 -0.0142 -0.0636
    1W        W63413   5.026  17.264   7.166  0.0050  0.2780 -0.0660
    1W        W63414   3.169   1.173   8.702  0.1800 -0.1685 -0.1590
    1W        W63415  14.422   3.635   7.722  0.0606  0.2244 -0.0838
    1W        W63416  27.250  20.902   0.738 -0.0217  0.0686  0.2330
    1W        W63417  14.788  22.191   2.747 -0.1549 -0.0154 -0.2523
    1W        W63418   7.889   5.175   7.158 -0.0305 -0.2552 -0.2014
    1W        W63419   1.831  14.945   7.315  0.2348  0.3996 -0.1460
    1W        W63420   7.683  15.425   8.464  0.0640  0.2789  0.0849
    1W        W63421   9.765  29.623   1.764  0.0138  0.0523 -0.5312
    1W        W63422   2.491   8.158   7.268  0.0904 -0.0933 -0.0111
    1W        W63423   0.729  24.254   7.765 -0.2979  0.1896 -0.0123
    1W        W63424   0.311  13.639   8.365  0.1921 -0.0132  0.0029
    1W        W63425  26.989  11.262   1.456  0.1856  0.0050  0.0177
    1W        W63426  10.439  23.822   6.979  0.0867  0.1459  0.0881
    1W        W63427  26.368  11.958   1.094  0.0171 -0.0817 -0.0824
    1W        W63428   2.514  17.748   6.180  0.1075  0.2686 -0.2717
    1W        W63429  19.633  29.436   9.250 -0.1422 -0.3413  0.1982
    1W        W63430  10.508  10.217   9.121  0.0889  0.1862 -0.2899
    1W        W63431  20.686  18.952   6.551  0.0110  0.0415 -0.0086
    1W        W63432  28.084   5.957   2.243 -0.0747 -0.0600 -0.0425
    1W        W63433  29.936  15.745   7.938  0.1913  0.1620  0.1483
    1W        W63434   9.520  24.773   1.140 -0.2032 -0.2549 -0.3691
    1W        W63435  22.274  25.392   0.736 -0.1052  0.1499 -0.1422
    1W        W63436  14.745   7.202   0.954 -0.0083 -0.2825 -0.2520
    1W        W63437  17.638  20.848   7.996  0.0466  0.1482  0.0018
    1W        W63438  24.314  14.529   6.588 -0.0687 -0.1516  0.0182
    1W        W63439  28.036  27.699   6.712 -0.0719 -0.1923  0.0725
    1W        W63440  23.238   7.882   9.040 -0.2347  0.0127 -0.1109
    1W        W63441  29.090  15.045   1.269  0.0969  0.2052 -0.0158
    1W        W63442  10.538  22.953   8.948 -0.1583 -0.0792 -0.0440
    1W        W63443  17.462  26.044   0.805  0.1230  0.0466  0.0086
    1W        W63444   8.397  19.497   8.800 -0.1114 -0.2557  0.0671
    1W        W63445   2.830   5.814   3.874 -0.0068 -0.1110 -0.2121
    1W        W63446  16.601  14.731   6.548  0.0466  0.0467  0.2171
    1W        W63447  25.099   5.332   1.467  0.0553  0.1790 -0.0122
    1W        W63448  21.286  15.481   9.161 -0.1231 -0.0319 -0.2757
    1W        W63449   9.277  20.711   7.094  0.0780  0.0494 -0.2432
    1W        W63450  21.277   0.738   7.403 -0.0471  0.1392 -0.2629
    1W        W63451  23.773  13.204   1.965  0.1206  0.1395 -0.0725
    1W        W63452  14.605   6.836   2.710  0.0535  0.2144  0.0671
    1W        W63453  20.582  23.024   0.295  0.0197  0.0193 -0.0471
    1W        W63454  14.769  29.044   9.173  0.1692  0.2573 -0.0644
    1W        W63455   4.620  21.800   7.565 -0.1342 -0.0571 -0.2924
    1W        W63456  23.679  15.662   8.063 -0.0842  0.0172 -0.0298
    1W        W63457  22.180   6.742   1.904  0.3307  0.0721  0.1944
    1W        W63458   5.688   1.168   2.828 -0.3571 -0.0495 -0.3803
    1W        W63459   2.099  21.694   7.407 -0.5646  0.0431 -0.0970
    1W        W63460   1.627  20.811   8.833  0.1734 -0.1720  0.2524
    1W        W63461   9.576  24.256   1.334 -0.2009 -0.2376  0.1377
    1W        W63462  29.919   9.730   6.786 -0.2166  0.1879  0.1041
    1W        W63463   8.919   6.720   1.605 -0.0726 -0.0107 -0.0835
    1W        W63464   6.905   9.336   7.338  0.2329 -0.4090 -0.0854
    1W        W63465  24.929  24.011   0.935 -0.1120  0.0193 -0.1932
    1W        W63466   3.749  15.994   6.582  0.1638 -0.0190  0.1837
    1W        W63467  11.376  30.058   8.004 -0.1854 -0.1738 -0.0449
    1W        W63468  11.342  28.805   6.847 -0.2296  0.0706 -0.2167
    1W        W63469  26.128  24.211   1.375 -0.0927  0.1037  0.3226
    1W        W63470  19.714   2.419   2.851 -0.2952  0.3296  0.0282
    1W        W63471  17.974  26.506   6.714  0.0295  0.0902  0.0194
    1W        W63472  24.936  28.658   1.222 -0.1681  0.3830 -0.1700
    1W        W63473  13.352   5.643   3.641 -0.1963  0.0766  0.0714
    1W        W63474   4.996  16.132   8.402  0.2657 -0.0496  0.1137
    1W        W63475  14.520   3.093   1.173 -0.2283 -0.2711  0.0124
    1W        W63476  28.955  25.464   2.254  0.1619  0.0439  0.0379
    1W        W63477  18.276  11.068   0.138 -0.0361  0.0224  0.1833
    1W        W63478  26.285  27.421   0.993  0.0856  0.1180 -0.1134
    1W        W63479   3.206   0.225   1.704 -0.2830 -0.2324 -0.0551
    1W        W63480  29.295  16.614   8.727 -0.1129 -0.4338  0.0359
    1W        W63481   3.733  28.498   0.476 -0.0416  0.0907  0.1530
    1W        W63482   8.008   9.138   1.813 -0.1876  0.1908  0.0152
    1W        W63483  15.769  10.336   8.777 -0.0841  0.2346  0.1094
    1W        W63484  28.527   8.900   8.821  0.1706 -0.0147  0.1979
    1W        W63485   5.269  17.568   7.599 -0.1342 -0.4426  0.0107
    1W        W63486  17.855   5.664   0.679 -0.1183 -0.1558  0.0443
    1W        W63487   3.967   7.504   2.475  0.1231  0.0786  0.1709
    1W        W63488  21.577  22.366   0.269  0.1370 -0.0988 -0.2385
    1W        W63489  27.719  22.314   1.195 -0.1080 -0.3723 -0.0357
    1W        W63490  28.385  23.725   7.193 -0.0362 -0.1746  0.2122
    1W        W63491   1.157  14.917   0.531 -0.5850  0.0722 -0.0503
    1W        W63492  18.602  22.073   2.228 -0.0211 -0.1737  0.1010
    1W        W63493  28.660  21.046   1.921 -0.2885  0.1035 -0.0832
    1W        W63494   6.377  16.784   7.352  0.0703  0.0982  0.0733
    1W        W63495  27.698  20.324   0.993  0.5352  0.1770  0.0222
    1W        W63496  18.973  20.244   1.495  0.1353  0.0134 -0.4095
    1W        W63497   1.188   9.756   6.985 -0.0769 -0.1001 -0.2913
    1W        W63498  13.861   6.330   1.756 -0.1705  0.2778  0.0261
    1W        W63499  22.349   3.980   8.657  0.0661 -0.1887  0.3384
    1W        W63500  11.858   9.923   9.190 -0.1270 -0.0071 -0.3103
    1W        W63501  27.764  21.881   7.438  0.0224 -0.1113  0.0399
    1W        W63502  24.661   6.710   0.617 -0.1660  0.2535  0.1538
    1W        W63503  11.937  11.838   8.728  0.0556  0.2542  0.1425
    1W        W63504   4.485   7.072   1.805 -0.1904  0.3314 -0.0407
    1W        W63505  14.321  26.315   9.165  0.1664 -0.1678  0.4984
    1W        W63506  23.594  15.963   7.643 -0.3464  0.2408 -0.1534
    1W        W63507  17.369   7.274   3.574 -0.1384 -0.1516  0.0751
    1W        W63508  23.187   5.644   8.317 -0.2216 -0.0011 -0.1108
    1W        W63509  16.377   6.832   0.076  0.3342  0.0641 -0.0809
    1W        W63510   0.189  18.164   5.839  0.0846 -0.1773  0.1938
    1W        W63511  25.310   9.011   1.593  0.0876 -0.0648 -0.1828
    1W        W63512  25.696  22.626   6.701 -0.1516  0.3146  0.1633
    1W        W63513  12.850  12.821   0.728  0.0940 -0.1613  0.0581
    1W        W63514   8.652  22.624   0.762 -0.0157 -0.1652 -0.0932
    1W        W63515   4.766  18.031   8.039 -0.1913 -0.0533  0.1347
    1W        W63516  28.316  11.855   9.138 -0.1434 -0.0203  0.2258
    1W        W63517  29.355  11.908   8.347  0.0626  0.2371  0.0892
    1W        W63518   0.353  11.584   0.352 -0.1102  0.0064  0.0516
    1W        W63519   9.943   9.266   0.812 -0.0266 -0.0885 -0.0410
    1W        W63520  12.901  17.982   8.766 -0.0199  0.0723 -0.1760
    1W        W63521  27.941  25.122   9.358 -0.0909 -0.1328  0.1680
    1W        W63522  29.809  25.828   0.898  0.0342  0.2563  0.1498
    1W        W63523  14.922  26.220   1.279 -0.0784  0.1389  0.1043
    1W        W63524  23.677   4.420   7.949 -0.1028  0.2494 -0.0363
    1W        W63525   6.656  14.481   3.338 -0.0769  0.2701  0.2366
    1W        W63526  23.053  25.280   7.805 -0.0996  0.1528  0.0165
    1W        W63527  13.855  10.833   1.294  0.2089  0.1596  0.2079
    1W        W63528  28.589   4.087   7.328  0.1580 -0.2045  0.2558
    1W        W63529   5.121  26.028   9.362 -0.1469 -0.1495  0.4155
    1W        W63530  13.632  18.963   8.201  0.0453  0.2469 -0.2495
    1W        W63531  19.833  21.861   2.255  0.0287  0.1694 -0.1033
    1W        W63532   8.009  12.570   3.298 -0.1141  0.1309  0.0711
    1W        W63533  23.577  14.311   0.719  0.0078 -0.0065  0.0604
    1W        W63534  17.139   5.799   7.436  0.0801  0.0150 -0.1709
    1W        W63535   9.704   5.261   7.426 -0.1164  0.1960  0.0466
    1W        W63536   5.647  12.426   6.547 -0.0129 -0.1415 -0.1629
    1W        W63537  28.792   0.339   7.054 -0.0850 -0.0926 -0.3508
    1W        W63538  29.312  18.914   0.672 -0.1143 -0.3988 -0.2306
    1W        W63539   0.077  13.777   1.374 -0.2643 -0.1075  0.3574
    1W        W63540  11.178   4.749   8.483 -0.1095  0.1163  0.2175
    1W        W63541   0.744   0.128   7.520 -0.0356 -0.1108  0.2150
    1W        W63542  12.850   6.412   8.390 -0.0747  0.2112  0.0258
    1W        W63543  27.139   4.084   1.906 -0.0830 -0.0787 -0.0997
    1W        W63544  12.101   2.927   0.829  0.2544 -0.0592 -0.0094
    1W        W63545   5.218  11.699   2.182 -0.2000 -0.1259  0.2120
    1W        W63546  29.530  28.570   7.595 -0.3549 -0.0937  0.0514
    1W        W63547  24.215   4.785   1.527 -0.0506 -0.1345 -0.3159
    1W        W63548   2.890  21.742   5.696 -0.1370  0.0406  0.1148
    1W        W63549  10.165  10.969   0.804  0.0936  0.0872  0.2005
    1W        W63550   8.485  28.479   7.651 -0.0392  0.0140 -0.2430
    1W        W63551  10.808  20.614   0.443 -0.0038  0.0151 -0.0150
    1W        W63552  16.778  12.098   1.778  0.0836  0.1377 -0.2358
    1W        W63553  15.404  24.252   8.715  0.0047 -0.0800  0.2125
    1W        W63554  25.749   9.770   6.509  0.2342 -0.0404 -0.1656
    1W        W63555  13.380  11.381   1.744  0.1949 -0.0470  0.1478
    1W        W63556  29.347  21.200   7.414 -0.0580 -0.2750  0.0206
    1W        W63557  23.945   2.269   3.272  0.1091 -0.1648  0.0227
    1W        W63558  25.889   9.334   7.450  0.0288 -0.0335 -0.2275
    1W        W63559  19.757   0.303   1.916 -0.1036  0.1241  0.1961
    1W        W63560   9.138   3.845   0.074 -0.2002  0.3575 -0.2182
    1W        W63561  10.023  29.503   7.863 -0.3209 -0.1563 -0.1210
    1W        W63562  28.457  27.395   1.746 -0.0589  0.1676  0.0406
    1W        W63563  28.717  27.685   7.459 -0.2589  0.1292 -0.2885
    1W        W63564  21.889  19.532   0.581 -0.1151  0.2691 -0.1008
    1W        W63565   0.218   2.698   8.604  0.1833  0.3843  0.2022
    1W        W63566  12.714  29.562   8.956 -0.0468 -0.0086  0.0615
    1W        W63567  28.614  26.977   3.180 -0.0592 -0.3506  0.1315
    1W        W63568  13.707   8.518   8.946  0.0056  0.0217  0.1177
    1W        W63569  28.096  11.894   7.804  0.0712 -0.3258 -0.0080
    1W        W63570   2.665   5.996   7.394  0.0035  0.1971 -0.1598
    1W        W63571  13.647  16.933   7.424  0.1414  0.0679  0.1820
    1W        W63572  20.537   2.725   9.147  0.1311  0.1192  0.0161
    1W        W63573  24.160  10.754   6.390 -0.1323  0.1257 -0.1567
    1W        W63574   1.612  23.690   2.260  0.1097 -0.0121 -0.3735
    1W        W63575   9.767  24.164   6.795  0.0926  0.0409  0.0942
    1W        W63576  17.198  26.500   2.433  0.2795 -0.0431  0.0495
    1W        W63577  28.993  29.854   8.622  0.1030 -0.4208  0.0837
    1W        W63578  30.059  28.034   6.511 -0.2821  0.0029  0.0830
    1W        W63579   0.422  19.307   1.291  0.1583 -0.0284 -0.1421
    1W        W63580  12.133   8.088   7.287 -0.3669  0.0915 -0.0869
    1W        W63581  29.726  18.935   7.087 -0.0656  0.3869 -0.3598
    1W        W63582   0.033  22.438   8.869  0.4795 -0.0137  0.1375
    1W        W63583   1.561   2.736   7.226  0.2796  0.2864  0.2604
    1W        W63584  20.988  14.168   1.942  0.0070 -0.0080 -0.0945
    1W        W63585  25.491   4.875   0.870 -0.1727 -0.1714 -0.0291
    1W        W63586   6.593  25.642   9.132 -0.0596 -0.2420  0.3364
    1W        W63587   1.547  24.780   8.247 -0.0646  0.1632  0.2963
    1W        W63588   3.329  21.297   8.795 -0.1229  0.2647 -0.0398
    1W        W63589  10.520  13.147   2.234  0.3171  0.0795  0.0514
    1W        W63590  13.727  29.720   3.177 -0.2176  0.1253 -0.1240
    1W        W63591   5.351  27.991   3.512  0.0570  0.0753 -0.0250
    1W        W63592  20.516  18.964   7.900 -0.0531 -0.1565 -0.0416
    1W        W63593  24.423  24.538   6.316  0.0463  0.0129  0.4120
    1W        W63594  26.429  29.895   8.330  0.1381  0.0171 -0.1948
    1W        W63595   4.445  23.448   0.361  0.2287  0.0531  0.1331
    1W        W63596  28.431  19.297   5.001  0.1710  0.2914  0.0208
    1W        W63597  13.971  12.555   0.471 -0.1185 -0.1185  0.0490
    1W        W63598  24.199  27.453   2.253 -0.2831  0.1063  0.0590
    1W        W63599  21.877  30.049   6.678 -0.0888 -0.0380  0.3228
    1W        W63600   3.653   7.533   2.139  0.2429  0.0617 -0.2103
    1W        W63601   4.039   0.055   0.222 -0.2258  0.1206  0.1973
    1W        W63602  19.382   9.163   8.516 -0.0017 -0.0018 -0.0834
    1W        W63603  26.217  10.300   0.494 -0.0487 -0.0125 -0.1926
    1W        W63604   4.851  20.593   6.527 -0.0841  0.0205 -0.0157
    1W        W63605  10.610  28.029   7.119  0.4133 -0.0008 -0.3522
    1W        W63606   6.995  13.335   7.847  0.0801  0.2091  0.2397
    1W        W63607  23.970  11.433   9.128  0.1082  0.3046 -0.1917
    1W        W63608  21.185  18.484   7.487  0.3913  0.0108 -0.3036
    1W        W63609  12.521  29.473   2.442 -0.0209  0.0332 -0.1342
    1W        W63610   9.747  27.807   7.822  0.0624 -0.3990 -0.1825
    1W        W63611   6.938  21.388   6.595  0.3477  0.3183 -0.1183
    1W        W63612   9.635   6.533   8.072 -0.2638  0.1045 -0.1391
    1W        W63613  19.840  18.085   7.493 -0.4537 -0.2567  0.0371
    1W        W63614  30.046   6.737   9.194 -0.0024  0.2538  0.0325
    1W        W63615   7.919  24.611   1.791 -0.0477  0.0655  0.0404
    1W        W63616   3.765  28.260   8.588  0.3367  0.0914 -0.0538
    1W        W63617  24.035   6.435   0.150  0.0300  0.0112 -0.2478
    1W        W63618   4.174  21.030   5.699 -0.2721 -0.0881  0.1878
    1W        W63619   5.306  23.869   7.069  0.0829 -0.0412 -0.0449
    1W        W63620  23.787   3.127   0.536  0.0866  0.0653  0.0943
    1W        W63621  28.941   0.619   1.884 -0.0050 -0.0200  0.0057
    1W        W63622  10.127   9.829   8.850  0.1146  0.1310  0.3229
    1W        W63623   2.324   1.551   7.645  0.2935  0.3236  0.0388
    1W        W63624  29.778   4.248   0.444 -0.0042 -0.2015 -0.1306
    1W        W63625   7.020  15.776   1.893  0.0478 -0.1523  0.0632
    1W        W63626   0.298  11.788   0.952 -0.1755  0.3339 -0.1217
    1W        W63627  27.817  25.252   1.398  0.0179  0.0252 -0.0318
    1W        W63628   5.741  13.275   2.362 -0.1798 -0.0260  0.1813
    1W        W63629  14.489   6.433   3.127 -0.0703  0.1031 -0.0574
    1W        W63630  23.161  24.496   1.135  0.3111 -0.0992 -0.3595
    1W        W63631   3.074  29.699   2.084 -0.0872  0.0991 -0.0485
    1W        W63632  19.210  20.518   7.982  0.1520  0.0211  0.0105
    1W        W63633  28.734  15.056   7.775  0.0876 -0.0894 -0.0111
    1W        W63634   4.532   6.789   7.760 -0.3287  0.1455  0.0535
    1W        W63635  12.528  29.104   8.939 -0.0116 -0.0472 -0.0368
    1W        W63636   2.371  13.144   6.035 -0.1455  0.2895  0.0516
    1W        W63637  29.345  26.279   7.787  0.0152 -0.1906  0.1851
    1W        W63638  16.310  17.119   2.255 -0.0879 -0.1782  0.0336
    1W        W63639   7.961  13.393   0.851 -0.1829  0.3010  0.2906
    1W        W63640   8.196  30.050   7.926 -0.2687  0.1303  0.4341
    1W        W63641  21.852  19.830   7.034  0.3280 -0.0898  0.3687
    1W        W63642   0.619  27.402   8.956  0.1391  0.2054  0.0622
    1W        W63643  11.911  29.591   1.164 -0.0850 -0.1424 -0.1167
    1W        W63644  12.988  16.329   2.819  0.1268 -0.0592 -0.0477
    1W        W63645  23.095   6.277   1.642 -0.0715  0.0775 -0.2633
    1W        W63646   8.957  23.456   0.818  0.0355 -0.1211  0.1250
    1W        W63647  20.555  16.049   0.908 -0.1195 -0.2027  0.0219
    1W        W63648  19.013  20.113   8.784  0.1097  0.3358  0.0017
    1W        W63649   2.811   9.043   0.189 -0.0901  0.0774 -0.0549
    1W        W63650   0.929  25.702   0.709  0.0272 -0.1657  0.2327
    1W        W63651   9.757   0.440   2.092 -0.3105  0.0242  0.2296
    1W        W63652  24.183   5.964   7.936 -0.0501 -0.0641 -0.0932
    1W        W63653  19.513  19.727   6.150  0.1250 -0.3076 -0.0005
    1W        W63654  11.135  19.982   1.374 -0.0604 -0.2171 -0.0599
    1W        W63655  15.501  16.139   9.037  0.2030 -0.0125  0.0343
    1W        W63656  20.119  25.549   8.271 -0.0538 -0.1064 -0.0439
    1W        W63657  12.978  26.082   3.181 -0.0909 -0.1559 -0.1764
    1W        W63658   0.201  15.473   0.144  0.3427 -0.1791  0.4125
    1W        W63659  18.571  11.548   6.903 -0.0468  0.1618 -0.0845
    1W        W63660  23.700   1.337   1.743  0.0664 -0.0598 -0.0779
    1W        W63661   7.477  28.837   1.928 -0.1329  0.0803 -0.3026
    1W        W63662  18.084  26.803   7.069  0.1434 -0.2605 -0.0437
    1W        W63663  28.578  22.031   0.248 -0.1058  0.0852  0.2231
    1W        W63664   6.599  10.086   8.984  0.1067  0.2117 -0.1033
    1W        W63665  25.564   1.611   9.054  0.0036 -0.1100  0.1356
    1W        W63666  12.220  15.169   9.020  0.0746 -0.1188  0.2140
    1W        W63667  26.796   7.224   0.644 -0.0383  0.0354 -0.2424
    1W        W63668  15.120  28.869   2.812 -0.0217 -0.1167 -0.0980
    1W        W63669  15.144   0.511   0.263  0.1063 -0.0324  0.2471
    1W        W63670  25.965  17.035   0.243 -0.1503  0.0107  0.0368
    1W        W63671  23.955  21.979   8.404 -0.0903 -0.0721  0.0531
    1W        W63672   2.080   7.679   2.833 -0.0207  0.2970 -0.0030
    1W        W63673  10.681  16.694   1.252  0.0625  0.2988  0.1481
    1W        W63674  27.828  21.920   8.858  0.1348 -0.2161  0.0161
    1W        W63675  23.448   8.793   9.067 -0.0817 -0.1382 -0.0808
    1W        W63676  19.466   0.356   2.357 -0.3709 -0.2039  0.1214
    1W        W63677   3.409   5.476   2.264 -0.4079  0.1636  0.3439
    1W        W63678  15.225   6.225   3.099  0.1748 -0.2701 -0.0443
    1W        W63679  15.291  21.771   6.879  0.0370  0.1196  0.1230
    1W        W63680  22.087  11.207   8.558 -0.2193 -0.0604  0.3302
    1W        W63681   5.267  22.972   7.120 -0.0045 -0.0743 -0.3219
    1W        W63682  29.117  29.477   8.279  0.0222 -0.0411  0.2635
    1W        W63683  13.403   8.918   1.427  0.0827 -0.0833  0.0269
    1W        W63684  10.002  21.228   8.339 -0.1213  0.0037 -0.1688
    1W        W63685  18.944  14.681   1.439  0.0565  0.0766 -0.0429
    1W        W63686   4.027   2.073   2.220 -0.1734  0.0639 -0.1661
    1W        W63687   9.637   5.380   0.656  0.1623  0.1723 -0.1075
    1W        W63688   3.046  20.471   8.569  0.0175  0.2683 -0.1664
    1W        W63689  21.826   7.215   8.724  0.1903 -0.2357 -0.3824
    1W        W63690  26.146  15.183   7.075  0.0946  0.0776  0.1398
    1W        W63691   8.366  25.607   7.020 -0.2430 -0.2283  0.0565
    1W        W63692  25.669   3.792   6.932 -0.1051  0.1008  0.1010
    1W        W63693   9.762   9.842   9.179  0.0550 -0.1540 -0.0738
    1W        W63694  27.765  26.091   1.492  0.0952  0.1555  0.1380
    1W        W63695  16.330  27.894   8.683  0.2674  0.1393 -0.1611
    1W        W63696  22.587  11.718   6.261  0.0240 -0.1960 -0.1981
    1W        W63697   3.005  28.921   2.766  0.1114  0.0375  0.0158
    1W        W63698   7.304  12.478   2.443 -0.3071 -0.2887 -0.0003
    1W        W63699   7.794   5.134   2.166  0.3817 -0.3708 -0.0081
    1W        W63700  21.304  21.375   1.184  0.0468  0.1783  0.0424
    1W        W63701  18.932  16.795   1.768  0.2026 -0.4533 -0.3177
    1W        W63702  23.373   7.241   1.991  0.0358 -0.3669 -0.2475
    1W        W63703   9.039   5.896   7.070 -0.0027 -0.1704 -0.1902
    1W        W63704  12.265  27.630   0.611 -0.0027  0.0010 -0.3409
    1W        W63705  10.113  27.678   9.237 -0.0057  0.0720 -0.2332
    1W        W63706   4.973   9.467   2.999  0.3776 -0.0981  0.3681
    1W        W63707  25.720   7.150   0.617 -0.1179 -0.1199 -0.0083
    1W        W63708  20.593   5.267   9.061  0.3776 -0.1373 -0.1220
    1W        W63709  17.741  21.049   0.504  0.3427 -0.2596 -0.0626
    1W        W63710   1.162  16.695   8.424  0.1004  0.0340  0.3653
    1W        W63711  26.783  16.346   6.708  0.1460 -0.2993 -0.1705
    1W        W63712   9.615   6.171   3.083 -0.1777 -0.3582 -0.3240
    1W        W63713  26.807  14.217   2.247  0.2771  0.1446  0.2855
    1W        W63714   7.705  19.942   9.093  0.1253  0.1888 -0.0800
    1W        W63715   0.512  21.859   6.359  0.0831 -0.0174  0.0715
    1W        W63716   7.461  27.116   3.635 -0.3795  0.4676 -0.0092
    1W        W63717  21.819  28.968   2.778  0.1486  0.1130 -0.1070
    1W        W63718   8.209   5.881   7.971 -0.1867  0.2044  0.0630
    1W        W63719   5.549   4.942   6.852  0.1224 -0.1232  0.0533
    1W        W63720   9.240  27.822   7.701 -0.4549 -0.0094 -0.1876
    1W        W63721  14.214   0.563   7.617  0.1222 -0.0037  0.0122
    1W        W63722  28.772   8.290   5.407  0.1280  0.0817 -0.2641
    1W        W63723  21.972  15.982   1.605  0.0663  0.1746 -0.0465
    1W        W63724  29.773   8.023   3.234  0.2637 -0.1222 -0.0245
    1W        W63725  12.608  28.154   8.681  0.3093 -0.0731 -0.0252
    1W        W63726   3.490  12.151   0.516  0.1046 -0.0300 -0.1660
    1W        W63727   1.301   2.982   8.616  0.3630  0.0868 -0.2816
    1W        W63728   8.812  27.185   8.327 -0.1721 -0.2371  0.0031
    1W        W63729  29.498  12.587   8.467  0.1084 -0.0747 -0.0621
    1W        W63730  27.858   6.239   0.116  0.1831 -0.1092  0.0219
    1W        W63731  27.072  27.670   6.711 -0.0202  0.3398  0.1041
    1W        W63732  20.554  21.559   9.112 -0.1170 -0.0064 -0.2577
    1W        W63733   2.610   5.065   8.499  0.0388 -0.2713  0.1475
    1W        W63734  28.643  22.543   8.906  0.0338 -0.1341 -0.0474
    1W        W63735   9.109   4.901   3.081  0.2821 -0.0016 -0.2472
    1W        W63736  15.889  19.190   8.149  0.1642 -0.1838  0.1784
    1W        W63737  23.074  15.944   0.644 -0.1105  0.0876 -0.2069
    1W        W63738  20.410   6.827   8.234  0.2681 -0.1216  0.1032
    1W        W63739  15.596  29.974   9.037 -0.0461  0.2512  0.0342
    1W        W63740  13.351   6.487   1.077  0.0021 -0.0237  0.0069
    1W        W63741  29.361   9.623   0.445 -0.1384 -0.2969  0.0610
    1W        W63742  22.694  12.708   7.176  0.1590  0.0649  0.0802
    1W        W63743  24.144  26.672   6.686 -0.0488 -0.0191 -0.1255
    1W        W63744   6.602   7.133   8.806  0.0443 -0.0595  0.3024
    1W        W63745  24.129  12.699   7.597  0.2855  0.0832  0.0320
    1W        W63746  18.635  14.254   6.574  0.4084  0.1285  0.1710
    1W        W63747   0.972  19.792   6.274  0.0806 -0.2184  0.1728
    1W        W63748  14.768  10.754   0.606 -0.0019  0.1788  0.0013
    1W        W63749   8.488   5.796   1.716 -0.0970 -0.0109  0.0599
    1W        W63750   9.458  27.726   1.922 -0.2007  0.2723 -0.2445
    1W        W63751  17.238  27.762   1.959 -0.0259  0.3227  0.2623
    1W        W63752  30.027  29.900   2.618  0.1709 -0.3625 -0.0148
    1W        W63753  11.766  16.563   1.681  0.1015 -0.1909 -0.0020
    1W        W63754  25.308   1.204   1.788 -0.0597 -0.1755  0.2567
    1W        W63755  17.485  12.926   7.484  0.0207 -0.4686 -0.0194
    1W        W63756   1.005  13.187   7.286 -0.2637  0.0549 -0.0491
    1W        W63757  10.207  22.952   2.259  0.4428 -0.0395 -0.2254
    1W        W63758   0.055   1.852   6.773  0.2811  0.1897 -0.1879
    1W        W63759   5.727   8.602   1.869 -0.3448  0.0656 -0.2922
    1W        W63760   9.461  24.681   8.875  0.2985 -0.1570  0.0423
    1W        W63761  22.535  27.272   3.183 -0.0779 -0.1756 -0.1834
    1W        W63762  29.002  10.765   8.901  0.0734 -0.2164 -0.0748
    1W        W63763  20.113  29.351   9.324  0.2114 -0.1051 -0.3341
    1W        W63764  23.413  17.513   1.473 -0.0277  0.1211  0.0451
    1W        W63765  15.029   6.139   1.736  0.0113  0.0287  0.2484
    1W        W63766  27.935  28.909   2.637  0.0621  0.4483  0.1242
    1W        W63767   7.368  24.264   1.818 -0.2853  0.4759 -0.1782
    1W        W63768  25.532   6.139   6.397 -0.0258 -0.0531 -0.1847
    1W        W63769  20.377  13.811   6.809 -0.0963  0.1129 -0.0852
    1W        W63770  19.950  26.452   1.138  0.1073  0.1002  0.0482
    1W        W63771   7.189  22.889   7.391 -0.1459 -0.3804 -0.2353
    1W        W63772  19.329  21.155   0.219 -0.0313  0.1870 -0.0530
    1W        W63773  24.721  17.365   0.360 -0.1475  0.0813 -0.1523
    1W        W63774   7.336  16.586   7.974  0.0954 -0.3646 -0.1939
    1W        W63775  29.490   0.663   0.711  0.0998 -0.1238 -0.1483
    1W        W63776   0.172  15.671   6.626 -0.2389 -0.0340  0.1581
    1W        W63777  22.200   6.050   9.094  0.1312  0.1814  0.0500
    1W        W63778  15.303  16.407   1.058 -0.0028 -0.1834 -0.0246
    1W        W63779   3.411   4.044   2.304  0.0503 -0.2007 -0.3322
    1W        W63780  29.928  21.423   0.784 -0.1307 -0.1103 -0.1453
    1W        W63781  11.093  21.074   7.192 -0.0116 -0.1688 -0.0691
    1W        W63782   6.203  29.305   8.508 -0.3387  0.0918  0.0617
    1W        W63783  15.555  15.046   6.541 -0.0003 -0.0755  0.2111
    1W        W63784  10.513  23.773   6.464 -0.0217  0.0498 -0.4047
    1W        W63785   6.929  26.796   7.913 -0.1660  0.1119 -0.0721
    1W        W63786   1.543   1.351   7.412  0.1989  0.0827  0.1469
    1W        W63787   1.915  14.302   8.518 -0.0395  0.0706 -0.2341
    1W        W63788   6.430  14.417   9.312  0.0221  0.1954 -0.0004
    1W        W63789   7.939  27.003   8.486  0.1899  0.3674  0.3492
    1W        W63790   9.062  11.878   1.167  0.0743 -0.1504  0.0402
    1W        W63791   7.120  18.912   1.883  0.0715  0.0195 -0.1805
    1W        W63792  26.168  18.473   1.377 -0.0676  0.1054 -0.2106
    1W        W63793  21.182  21.065   2.513 -0.1107  0.2102 -0.0393
    1W        W63794  23.665  23.855   0.562 -0.4214  0.1622 -0.1191
    1W        W63795  16.930   0.374   2.266  0.1410  0.0750 -0.1234
    1W        W63796   3.137   4.852   8.911  0.4142  0.3181 -0.1000
    1W        W63797   2.252   4.385   2.145  0.0674  0.1143 -0.0636
    1W        W63798  10.824   1.097   8.909 -0.1224  0.0050 -0.1106
    1W        W63799   3.564  23.712   1.928 -0.0971  0.2241  0.0237
    1W        W63800  17.392  12.670   0.657 -0.0254 -0.1183 -0.0437
    1W        W63801   1.947   8.368   7.325  0.2987 -0.2448 -0.1031
    1W        W63802  19.844  27.858   6.672  0.0031  0.0567 -0.1132
    1W        W63803   3.155  25.379   5.728 -0.0892  0.3316 -0.0535
    1W        W63804   7.699  26.733   1.525 -0.0579 -0.1668 -0.1510
    1W        W63805  28.683   2.198   2.595 -0.0996 -0.3674  0.1568
    1W        W63806   1.296  28.312   9.046 -0.0621 -0.2367  0.1241
    1W        W63807  16.862   4.638   1.753 -0.0757 -0.0475  0.1705
    1W        W63808  23.529  24.105   8.311  0.1359  0.3221  0.0112
    1W        W63809  23.521  24.988   8.566 -0.1807 -0.0501  0.0049
    1W        W63810  18.223  24.668   0.145 -0.4510  0.0996  0.3790
    1W        W63811  23.732  18.883   0.334 -0.0942  0.0307  0.2308
    1W        W63812  16.354   3.798   7.456 -0.0624 -0.1098  0.0285
    1W        W63813  29.247   7.788   8.707  0.0186  0.1062 -0.1110
    1W        W63814  26.754  15.305   4.873  0.2044 -0.1264  0.0598
    1W        W63815   0.832  22.251   1.679 -0.7270  0.0247  0.1371
    1W        W63816  22.737  12.268   0.473  0.2971  0.0516  0.1542
    1W        W63817   3.927  17.075   1.044 -0.2267  0.1390  0.2379
    1W        W63818   3.114  29.787   8.910 -0.2846  0.2186 -0.3139
    1W        W63819  10.716  16.620   2.241 -0.3585  0.2410 -0.2374
    1W        W63820  23.777   2.353   6.705  0.1051 -0.1822 -0.1957
    1W        W63821  19.346  26.150   0.519 -0.0386 -0.0775 -0.3305
    1W        W63822  27.459   5.363   7.414 -0.0293  0.0336 -0.0585
    1W        W63823  17.058  25.999   8.800  0.0798  0.0932 -0.2751
    1W        W63824   3.189   9.203   0.987 -0.0608 -0.1455  0.2239
    1W        W63825  26.666  29.569   6.011  0.0380 -0.0731  0.0055
    1W        W63826   6.026   8.885   9.293  0.1787 -0.2197  0.3425
    1W        W63827  28.300  23.248   7.303 -0.2081 -0.2019  0.0599
    1W        W63828   3.154  23.978   9.085  0.0901 -0.0001 -0.0583
    1W        W63829  21.643  14.207   0.785 -0.2198 -0.0287  0.0567
    1W        W63830   9.178  13.144   2.435 -0.1213  0.1879 -0.2739
    1W        W63831  25.855   8.734   8.499 -0.0149  0.0334  0.2696
    1W        W63832  11.638  24.045   8.049  0.2808  0.2046 -0.0452
    1W        W63833   3.154  23.339   8.926  0.2213  0.3007  0.4027
    1W        W63834  20.035  22.639   7.970  0.1019  0.0178 -0.0526
    1W        W63835   1.520  28.632   0.386 -0.0922 -0.0783 -0.2606
    1W        W63836  29.245  29.179   7.857 -0.0298 -0.0784  0.0269
    1W        W63837   0.102  21.369   2.184 -0.0165  0.0400  0.2169
    1W        W63838  10.915  20.033   2.256 -0.5115 -0.0275 -0.0999
    1W        W63839  12.484  27.190   1.142 -0.3512  0.0783 -0.3781
    1W        W63840   0.786   2.559   0.716  0.1643 -0.0680  0.0593
    1W        W63841   5.163   7.116   2.670 -0.4652 -0.0741 -0.2187
    1W        W63842  18.642   2.744   6.954  0.0156  0.0913  0.0899
    1W        W63843   8.849   1.120   8.335  0.1741  0.0644 -0.0839
    1W        W63844   7.439  29.751   0.990 -0.2255  0.0261 -0.0946
    1W        W63845  10.023   4.834   1.562 -0.2671  0.0663  0.0147
    1W        W63846   6.313  12.866   1.655 -0.4045 -0.1339 -0.0596
    1W        W63847  26.519  29.370   6.869 -0.0917  0.1979 -0.0640
    1W        W63848  28.260   8.977   2.364 -0.0893 -0.1364 -0.1710
    1W        W63849  14.290  27.399   8.457  0.0485  0.1108  0.1506
    1W        W63850  11.605  22.050   7.420  0.0959  0.3136  0.0382
    1W        W63851   2.214   0.957   1.140 -0.1579  0.1465 -0.4834
    1W        W63852  27.061   2.036   0.553  0.1744 -0.1763  0.0218
    1W        W63853   6.572  21.123   7.988 -0.0047 -0.0347  0.1680
    1W        W63854  12.914  10.252   8.149  0.0772  0.2610  0.3076
    1W        W63855   8.333  18.630   8.632 -0.2990 -0.1912  0.0654
    1W        W63856   5.518  16.387   8.372 -0.2601 -0.0545  0.0876
    1W        W63857  13.891  14.392   2.453  0.0030 -0.0510  0.0073
    1W        W63858  19.671  11.820   9.284 -0.5011 -0.0246  0.1080
    1W        W63859  25.137  24.344   0.626 -0.2759 -0.0266 -0.1382
    1W        W63860  15.114  20.300   1.408  0.0028  0.0123  0.0487
    1W        W63861   5.700  29.044   8.391  0.2649  0.2779  0.0596
    1W        W63862  29.162  23.317   0.761 -0.3410 -0.1114 -0.1133
    1W        W63863  13.098  24.262   2.685 -0.0129 -0.1936 -0.0426
    1W        W63864   3.102  21.434   7.457 -0.0981 -0.1110 -0.3214
    1W        W63865  16.292   2.186   0.422 -0.2726 -0.0856  0.0570
    1W        W63866  18.009  17.915   1.194 -0.1543  0.0247 -0.1730
    1W        W63867  11.233  29.066   0.961  0.1501  0.0041  0.2765
    1W        W63868  27.820   0.040   0.476 -0.1037 -0.1351 -0.1718
    1W        W63869  21.980   8.554   2.899  0.1287 -0.2381  0.1695
    1W        W63870   8.484  23.635   7.603 -0.2359 -0.1719  0.0830
    1W        W63871   9.102   0.477   6.827  0.0902  0.1534 -0.1288
    1W        W63872  21.502   1.124   1.169 -0.4255 -0.0137  0.2382
    1W        W63873  17.847  10.253   1.972 -0.1327 -0.1115 -0.1614
    1W        W63874  26.773  16.655   0.305  0.0319 -0.2210 -0.4088
    1W        W63875  27.118  13.518   7.702  0.3263  0.0944  0.2478
    1W        W63876   1.179  29.119   3.884  0.1322  0.1205  0.2090
    1W        W63877   8.700  16.772   8.803  0.1220  0.0094  0.0120
    1W        W63878  19.248  19.699   9.008 -0.0087 -0.0967  0.3114
    1W        W63879  21.011  11.228   1.084 -0.1171  0.0481 -0.1848
    1W        W63880   2.274  23.009   1.979 -0.1485 -0.1537  0.4236
    1W        W63881  15.496  14.036   9.054 -0.1234  0.0388  0.0856
    1W        W63882   1.400  15.373   1.034  0.1398  0.0601  0.1995
    1W        W63883  11.585  27.386   7.664 -0.0121 -0.0620 -0.1066
    1W        W63884   6.205  29.529   0.918 -0.2713  0.1286 -0.0517
    1W        W63885   0.183  27.547   9.131 -0.0826  0.0311 -0.0427
    1W        W63886   2.907  22.563   1.523  0.2561  0.1079  0.3256
    1W        W63887  23.024  10.049   6.353 -0.1462  0.1917 -0.3211
    1W        W63888  16.474  23.241   8.513 -0.0312  0.0415  0.0423
    1W        W63889   1.709   4.620   3.591  0.2191 -0.0704 -0.1903
    1W        W63890  16.095  21.416   1.658  0.0748 -0.0478  0.1221
    1W        W63891  26.040  21.964   0.830  0.3205  0.0401 -0.1686
    1W        W63892  16.386   2.005   8.724  0.0334  0.1410 -0.0617
    1W        W63893  24.441  22.306   2.215  0.2354  0.1339  0.0922
    1W        W63894  20.489  22.679   8.243  0.0818 -0.4322 -0.4109
    1W        W63895   7.529  23.385   0.152 -0.1526 -0.2433  0.0865
    1W        W63896  12.482  11.666   1.272  0.0321  0.1218  0.0619
    1W        W63897   8.092  15.489   9.203  0.0688 -0.0538 -0.1968
    1W        W63898  17.399  15.434   0.996  0.1660 -0.0996  0.0816
    1W        W63899  12.190  22.483   2.060  0.0493 -0.0160  0.0772
    1W        W63900   6.965  20.370   1.136 -0.0620  0.0108  0.3027
    1W        W63901   9.758  24.397   8.522  0.1748  0.2581  0.0027
    1W        W63902  11.168  26.320   6.860  0.2732  0.0089 -0.3063
    1W        W63903   2.460  22.377   0.649 -0.1889 -0.0345 -0.0882
    1W        W63904  12.012  18.212   7.221 -0.0208 -0.0961 -0.2511
    1W        W63905   9.414   6.388   2.680 -0.2152  0.3126 -0.0672
    1W        W63906  11.908   5.767   0.791  0.1196 -0.0546  0.2151
    1W        W63907  12.943  13.995   0.488 -0.2514 -0.0389  0.0834
    1W        W63908  23.413  21.314   0.563  0.2882  0.0176  0.3900
    1W        W63909  20.923  17.323   0.962 -0.2323  0.2008 -0.1786
    1W        W63910  25.094  11.016   7.653  0.2408  0.0891 -0.0441
    1W        W63911   2.241   7.661   2.038 -0.2185 -0.1401  0.2548
    1W        W63912  17.319  28.713   0.135 -0.1274  0.0046  0.0618
    1W        W63913  29.742   0.456   3.378 -0.3683 -0.0598 -0.1287
    1W        W63914  13.308  12.083   2.924 -0.0301 -0.1829 -0.2743
    1W        W63915   8.871  29.110   7.447  0.2614  0.1470 -0.2733
    1W        W63916  13.523   2.411   3.591 -0.0188  0.0098  0.4147
    1W        W63917  23.488   5.026   2.247  0.0655 -0.2357  0.0252
    1W        W63918   3.021   4.586   1.634 -0.2325  0.0297 -0.1048
    1W        W63919  15.810   3.073   1.604  0.3368  0.2287 -0.6629
    1W        W63920  19.760   2.071   0.596 -0.1373  0.2607  0.2132
    1W        W63921  29.173  12.275   8.722 -0.1046 -0.3856 -0.0501
    1W        W63922   0.656  23.491   9.207  0.1274 -0.0773 -0.0699
    1W        W63923  17.349   0.871   1.486  0.0912  0.0521 -0.3355
    1W        W63924  25.259  21.919   1.181  0.0088  0.1299  0.1314
    1W        W63925  11.634   1.765   1.283 -0.1763 -0.0194 -0.2150
    1W        W63926  16.096  29.626   6.805  0.1138  0.3510  0.0433
    1W        W63927  23.111   3.733   2.604  0.3213 -0.2567  0.0009
    1W        W63928  29.372   9.303   0.018  0.1028  0.2893 -0.0078
    1W        W63929   9.293   2.958   9.252 -0.0409  0.1416 -0.2760
    1W        W63930   3.292   7.195   1.745 -0.0157  0.1304 -0.1335
    1W        W63931  28.979   5.371   8.098  0.1036 -0.0376  0.0272
    1W        W63932   3.646  25.041   9.118 -0.1896  0.0421  0.2073
    1W        W63933  23.343  15.887   1.766 -0.0139  0.1982 -0.1631
    1W        W63934  15.546   2.107   2.395 -0.0962 -0.0907 -0.1007
    1W        W63935  14.230  19.955   7.826  0.0675  0.1881 -0.0262
    1W        W63936  24.950  25.536   2.547 -0.0135 -0.0917  0.3909
    1W        W63937  15.141  23.051   0.069  0.0568 -0.3395 -0.1533
    1W        W63938   2.130  10.988   7.808  0.3335 -0.1087  0.0673
    1W        W63939  11.405   5.812   1.050 -0.1322  0.0709 -0.1356
    1W        W63940  26.621   8.799   7.768  0.0349 -0.1059 -0.0320
    1W        W63941  13.912  19.857   7.464 -0.0139  0.4474 -0.0160
    1W        W63942  25.593  11.729   0.143 -0.0309  0.0442 -0.1774
    1W        W63943  12.872  29.553   2.121  0.0662  0.0860 -0.3996
    1W        W63944  25.100  18.130   1.176  0.1580 -0.0962 -0.2547
    1W        W63945  21.303  28.465   7.177 -0.0180 -0.1848  0.0242
    1W        W63946  11.989   5.518   9.157  0.0980 -0.0628 -0.0398
    1W        W63947   6.981  22.752   6.923  0.1396  0.0399  0.0350
    1W        W63948  23.722  24.608   2.445  0.3608 -0.0295 -0.1117
    1W        W63949  23.631  19.249   9.344  0.0921  0.1421 -0.1947
    1W        W63950  28.243  22.986   5.952  0.0953 -0.0373  0.1232
    1W        W63951  27.815  26.111   0.851  0.2520 -0.0984 -0.1107
    1W        W63952  14.948  11.453   8.579  0.2572 -0.1539 -0.1810
    1W        W63953  19.612  15.177   8.690  0.3712  0.0923  0.1536
    1W        W63954  24.168  19.622   8.116 -0.1037 -0.1016  0.2215
    1W        W63955   1.647  18.273   6.274 -0.0360 -0.0252  0.1321
    1W        W63956  27.294  14.229   0.979 -0.0391 -0.0269 -0.0053
    1W        W63957  13.324  22.814   1.912 -0.2228  0.0308 -0.0611
    1W        W63958  23.915   6.397   8.221 -0.0004  0.0319  0.1260
    1W        W63959  12.754   8.036   2.126 -0.1582 -0.1662  0.2360
    1W        W63960  12.287   6.414   0.235 -0.0718  0.0048  0.0757
    1W        W63961   2.705  11.004   1.837  0.2786  0.2377  0.0581
    1W        W63962  19.366  29.276   8.588  0.0191 -0.0088  0.2238
    1W        W63963   3.507  10.182   2.957 -0.0348 -0.0127 -0.3418
    1W        W63964   1.367  29.058   2.069  0.0433 -0.1113 -0.0492
    1W        W63965   3.671   4.657   0.372 -0.0738 -0.1221  0.1176
    1W        W63966  23.861  22.972   7.538  0.1966 -0.1984 -0.0915
    1W        W63967  13.278  14.550   8.346  0.0874  0.2125 -0.1163
    1W        W63968   5.656   1.643   1.372  0.1258  0.1081 -0.3705
    1W        W63969   5.771  16.487   6.067 -0.1544 -0.0387  0.1435
    1W        W63970  22.782  23.050   8.913 -0.1473  0.0290 -0.1057
    1W        W63971  20.785  24.343   9.182  0.1333  0.2967 -0.3309
    1W        W63972  19.063   1.022   2.492 -0.0656  0.1846 -0.0502
    1W        W63973  28.641  19.032   8.171  0.0572  0.1569 -0.0257
    1W        W63974  22.492   8.268   0.739  0.2124  0.1174 -0.0257
    1W        W63975  20.895  19.712   0.981  0.1654  0.4054  0.0306
    1W        W63976   9.650  14.059   7.303 -0.1765  0.0867 -0.0454
    1W        W63977  21.385  16.629   0.263 -0.0183  0.0682  0.2007
    1W        W63978  12.463   1.378   8.597  0.0044  0.0656  0.3728
    1W        W63979  10.613  23.520   8.723 -0.2025  0.2086  0.0515
    1W        W63980  10.884   5.416   1.805 -0.0190 -0.4158 -0.0569
    1W        W63981   7.215  16.196   2.105 -0.0360  0.2170  0.0088
    1W        W63982   5.795  26.891   9.396  0.1817  0.0121  0.0992
    1W        W63983  28.449  26.845   8.699  0.0605 -0.1262  0.0600
    1W        W63984  18.279  20.446   6.865 -0.0181  0.1970  0.2458
    1W        W63985  13.675   4.624   9.310 -0.2948  0.0249  0.0016
    1W        W63986  19.850  29.204   8.556  0.2724 -0.3405 -0.2421
    1W        W63987  30.085  25.770   8.016 -0.2046  0.2617  0.0825
    1W        W63988   2.435  14.844   0.406 -0.0659  0.0450  0.0413
    1W        W63989  10.004  22.959   7.776 -0.1719 -0.0098  0.3266
    1W        W63990  19.351   4.442   7.732  0.0657 -0.1679 -0.5819
    1W        W63991   2.326  10.361   7.098  0.1208  0.1814 -0.2300
    1W        W63992  27.604  24.299   1.386 -0.0657  0.1724  0.1951
    1W        W63993   2.898  16.421   6.271  0.0052 -0.0785  0.1045
    1W        W63994  10.802   6.740   8.782 -0.0083  0.1944 -0.3637
    1W        W63995  29.818   5.575   0.500 -0.0249  0.0229 -0.1253
    1W        W63996   8.854   6.942   1.152  0.0870  0.1851  0.1606
    1W        W63997  24.332  25.745   7.009  0.1992 -0.0427 -0.1836
    1W        W63998   4.489   2.970   8.401 -0.0005 -0.0024 -0.1327
    1W        W63999   1.926  16.954   0.282  0.3818 -0.0543 -0.0569
    1W        W64000   5.254  25.028   7.747  0.0187 -0.0213  0.1122
    1W        W64001  26.744  10.663   8.505  0.1146  0.2903  0.0700
    1W        W64002  10.524  15.823   1.800  0.1569 -0.0272  0.1672
    1W        W64003  29.226  11.319   6.963  0.1278  0.0553 -0.1075
    1W        W64004   0.279  10.482   6.053  0.3061 -0.3188  0.0022
    1W        W64005  27.778  23.907   0.747  0.3256  0.0335  0.0532
    1W        W64006   3.132  22.318   8.819  0.0567 -0.1891  0.0084
    1W        W64007   1.654  29.550   0.713  0.3866 -0.0603 -0.0057
    1W        W64008  22.515  27.494   8.828  0.1102 -0.1361 -0.0094
    1W        W64009   5.059  28.661   3.697  0.1320  0.2284  0.2236
    1W        W64010  12.444   5.759   0.507  0.0966 -0.1355  0.4386
    1W        W64011  19.945   2.211   1.608  0.3160 -0.3110  0.2568
    1W        W64012  11.606  25.040   7.932  0.0169  0.0419 -0.0416
    1W        W64013  29.109  23.922   1.074  0.0453  0.0474  0.0179
    1W        W64014  12.018  17.630   9.035  0.1500  0.0313 -0.2449
    1W        W64015  10.502  17.163   1.377 -0.2129  0.1071 -0.0164
    1W        W64016   3.896   3.080   0.831 -0.0622  0.2700 -0.0557
    1W        W64017  28.392   4.894   1.404 -0.3758 -0.1049 -0.1383
    1W        W64018   8.504  14.091   2.141 -0.2955 -0.0804 -0.1022
    1W        W64019   6.795   0.469   2.549  0.0708  0.0341  0.2474
    1W        W64020  21.807  30.087   8.385  0.1857  0.2240  0.0708
    1W        W64021  11.748  25.548   7.958 -0.1208  0.3226 -0.0867
    1W        W64022   2.794  17.639   8.497 -0.3939  0.3190  0.1630
    1W        W64023  16.466   6.091   1.819 -0.0235 -0.3000 -0.3171
    1W        W64024   6.622   9.080   1.305  0.2190 -0.0542 -0.0460
    1W        W64025  13.079   7.943   4.094 -0.0997  0.1124  0.0654
    1W        W64026  18.657   7.843   8.197 -0.0470 -0.1710  0.1961
    1W        W64027   1.022  12.493   8.786 -0.0240  0.3993 -0.2339
    1W        W64028  27.444  15.481   8.075  0.1439  0.0343 -0.0311
    1W        W64029   3.165   3.520   0.790 -0.1543  0.2049  0.3167
    1W        W64030   2.975  17.649   0.280  0.2725  0.0733 -0.2141
    1W        W64031  27.311   6.247   1.492 -0.1290 -0.0296  0.2100
    1W        W64032  19.142   4.089   7.463 -0.0715 -0.1415 -0.2163
    1W        W64033   4.088  14.476   6.737  0.3519 -0.1010 -0.0624
    1W        W64034  10.835  12.568   8.791 -0.0707  0.0805 -0.1826
    1W        W64035   5.734  12.196   6.993 -0.0757  0.0878  0.0957
    1W        W64036   7.685  23.388   1.173  0.0463 -0.4214  0.1663
    1W        W64037  18.533  28.743   1.918  0.3538 -0.1319  0.0766
    1W        W64038  28.319   7.257   9.253 -0.0612 -0.1006  0.3593
    1W        W64039  18.027   0.164   3.295  0.2040 -0.1460  0.0795
    1W        W64040  16.591  18.756   0.386  0.0777 -0.5110 -0.0542
    1W        W64041   0.766  10.546   7.794  0.2096 -0.2377 -0.0227
    1W        W64042  27.964   3.134   1.865  0.0285 -0.0304 -0.0796
    1W        W64043  22.971   4.405   2.038  0.4016 -0.0296 -0.0206
    1W        W64044  10.027  29.683   0.423 -0.2705  0.0461  0.4806
    1W        W64045  15.372   0.171   6.594 -0.1707  0.0287 -0.2153
    1W        W64046   2.680  15.772   1.559  0.2456 -0.0474  0.1477
    1W        W64047  17.026  19.855   8.058  0.1327  0.2582  0.0798
    1W        W64048   3.680  11.002   7.077  0.0814  0.2784 -0.1238
    1W        W64049   4.711  14.453   8.443  0.1445 -0.1782  0.1387
    1W        W64050   3.420  25.294   1.683 -0.2762 -0.0101 -0.1206
    1W        W64051   8.793  14.364   7.491 -0.1458 -0.1942 -0.0291
    1W        W64052  25.376   6.803   8.851 -0.3203  0.1931  0.0089
    1W        W64053  10.504  19.932   9.152 -0.0590 -0.1591  0.0077
    1W        W64054  20.253   1.537   1.847  0.1510 -0.1624 -0.3849
    1W        W64055  25.218  17.273   0.138  0.3660 -0.0436  0.0197
    1W        W64056  16.176  27.317   2.601  0.1249  0.0727 -0.1313
    1W        W64057  19.662  25.563   7.986  0.0244 -0.0555 -0.2281
    1W        W64058   2.560  10.831   6.952  0.1012 -0.1614 -0.1022
    1W        W64059  27.921  23.101   2.821 -0.1816  0.0382 -0.1996
    1W        W64060   9.121   8.837   8.207  0.1304  0.1299 -0.3089
    1W        W64061  18.939  16.396   1.479  0.1796 -0.1540  0.0975
    1W        W64062   1.926   9.888   2.215 -0.0609  0.0974 -0.2883
    1W        W64063  24.892   0.362   7.871  0.1247 -0.0091 -0.1890
    1W        W64064  22.215  14.904   8.097  0.1271  0.0167 -0.3857
    1W        W64065  14.489   3.875   9.318  0.1603  0.1512  0.1642
    1W        W64066  27.473  24.522   9.276  0.2020  0.1859  0.0640
    1W        W64067   5.761  29.378   1.049  0.1418  0.0531 -0.0868
    1W        W64068  26.937  24.270   7.417 -0.0390 -0.0987 -0.1513
    1W        W64069   9.593  19.837   8.521  0.0290 -0.0415 -0.1382
    1W        W64070  19.375  21.190   1.785  0.0083  0.0533  0.2099
    1W        W64071   6.836   7.691   1.629 -0.0916  0.1390  0.4779
    1W        W64072  21.154  10.744   2.856 -0.1056  0.1226  0.0659
    1W        W64073   6.513  25.116   6.654 -0.0556 -0.2479  0.0473
    1W        W64074   6.663  11.006   0.269  0.0155  0.2454  0.2483
    1W        W64075  10.323  24.736   1.917  0.0003  0.0252  0.1920
    1W        W64076  25.264  22.854   1.423 -0.2256  0.0946 -0.3373
    1W        W64077  14.609   0.138   0.213 -0.0534 -0.1094 -0.1049
    1W        W64078  21.707  22.467   1.727 -0.1498 -0.0341 -0.3787
    1W        W64079  12.906   5.708   0.211  0.0601 -0.2217 -0.2794
    1W        W64080  14.463  13.265   7.891  0.1184 -0.1099 -0.0094
    1W        W64081  12.484  13.478   8.974 -0.3216 -0.1385 -0.2583
    1W        W64082  12.881   7.641   7.876  0.0073 -0.2902 -0.0568
    1W        W64083  16.305  28.526   7.288 -0.1811 -0.2137  0.1994
    1W        W64084  27.507   1.886   0.828  0.1464  0.0347 -0.0144
    1W        W64085  28.639   5.389   6.994 -0.2749 -0.3161  0.2128
    1W        W64086   0.191  16.750   0.516 -0.1892 -0.0393  0.3029
    1W        W64087  16.505  27.071   2.191  0.0139 -0.1743  0.1660
    1W        W64088   1.543  11.027   7.911  0.2536 -0.3275  0.0392
    1W        W64089  12.974   4.974   8.160 -0.2839 -0.0853  0.0967
    1W        W64090   3.581  20.470   8.594  0.0323 -0.2961 -0.2800
    1W        W64091  13.483  16.032   1.030 -0.0172  0.1118 -0.1531
    1W        W64092  14.652   3.779   0.454 -0.0152  0.0084  0.0504
    1W        W64093  18.526  23.663   7.576  0.0515 -0.2069  0.2293
    1W        W64094  20.098  21.913   8.072 -0.1185  0.2234 -0.1718
    1W        W64095  23.376  27.675   7.860 -0.3031  0.1320  0.1261
    1W        W64096   8.656  21.496   2.253 -0.0887  0.1625 -0.0532
    1W        W64097  12.284  22.502   8.411  0.3217 -0.0064  0.4601
    1W        W64098  27.112  11.209   0.140  0.0524  0.0456  0.1680
    1W        W64099  19.744  22.695   2.014 -0.0272  0.2104 -0.1434
    1W        W64100  20.546  24.668   7.372  0.2024 -0.1235 -0.0092
    1W        W64101  15.084   7.608   8.675  0.3030 -0.1782 -0.1339
    1W        W64102  24.726  11.981   1.810 -0.0673 -0.1349 -0.0847
    1W        W64103  20.445  28.120   8.872  0.0570  0.3284 -0.1509
    1W        W64104  15.441  18.869   1.056 -0.1514  0.1694 -0.2002
    1W        W64105  28.796  28.958   7.815  0.0950  0.1782  0.1601
    1W        W64106  23.729  19.133   1.757  0.1726  0.3400 -0.1022
    1W        W64107  25.588   8.709   6.822  0.4087  0.3997  0.0679
    1W        W64108  25.687  22.652   1.449 -0.2364  0.2792 -0.0734
    1W        W64109   8.942   6.742   0.227 -0.0503  0.1659 -0.1017
    1W        W64110  19.930  22.632   6.746 -0.2001  0.0645 -0.0312
    1W        W64111   2.318  25.337   0.773 -0.1005  0.0797  0.0845
    1W        W64112   5.052   5.596   1.195  0.0524  0.2520 -0.0191
    1W        W64113  29.742  14.190   0.143 -0.0777  0.1699  0.3548
    1W        W64114  19.710  21.309   9.234 -0.0253  0.0887 -0.0621
    1W        W64115  23.516   2.373   1.699 -0.0592  0.1187 -0.3632
    1W        W64116  28.124   3.983   1.509  0.2764 -0.0287  0.0296
    1W        W64117  28.819   8.024   7.708 -0.0381 -0.2976 -0.0068
    1W        W64118  29.418  19.786   8.807 -0.0373 -0.0050 -0.0305
    1W        W64119  29.254  16.364   7.449 -0.1161  0.1963  0.3028
    1W        W64120   7.888  11.055   9.154 -0.0996 -0.2834  0.0583
    1W        W64121   9.816   2.889   7.311 -0.0325  0.0233 -0.0215
    1W        W64122  19.004   7.746   7.572 -0.0386  0.2045  0.0886
    1W        W64123   3.685  22.250   1.386  0.2941 -0.3424  0.2486
    1W        W64124  22.598   6.967   1.415  0.2793 -0.2544 -0.0113
    1W        W64125  15.979   0.420   7.277 -0.0848  0.3682 -0.2156
    1W        W64126   0.974  16.261   1.639  0.1594  0.0903  0.0158
    1W        W64127  16.479  15.209   6.577 -0.0177  0.1757 -0.1189
    1W        W64128  21.012   1.025   1.987  0.0711  0.1887  0.1956
    1W        W64129  15.422   7.258   7.353 -0.1669 -0.0981 -0.1770
    1W        W64130  27.754  22.523   0.204 -0.2629 -0.0443 -0.0523
    1W        W64131  30.139   3.956   0.171 -0.2915 -0.0266  0.1611
    1W        W64132  15.983  20.482   1.285  0.1044 -0.2028  0.2343
    1W        W64133  10.821  13.948   8.098 -0.0641 -0.1902 -0.0756
    1W        W64134   3.068   3.028   5.880  0.0920 -0.0339 -0.0133
    1W        W64135  23.964  16.886   8.162 -0.1318  0.2124 -0.1001
    1W        W64136  25.871   4.562   9.301  0.0365 -0.0666 -0.1755
    1W        W64137  29.552   1.397   8.111 -0.0097 -0.3810 -0.1898
    1W        W64138  16.031  19.177   1.467 -0.1958 -0.2936 -0.2789
    1W        W64139   4.052  20.357   6.119 -0.0340 -0.1591  0.4176
    1W        W64140  12.881   3.710   0.895  0.0742  0.0966 -0.0213
    1W        W64141  29.908  12.767   0.418 -0.0188 -0.3073 -0.1339
    1W        W64142  12.673  26.252   8.035  0.1775 -0.0901  0.1757
    1W        W64143   4.190  13.257   0.440  0.1033 -0.2626  0.3056
    1W        W64144  10.828   4.368   8.854 -0.1080  0.1428 -0.1613
    1W        W64145   5.246   8.253   0.591 -0.1681  0.0183 -0.0816
    1W        W64146   3.280  18.439   8.600 -0.0830  0.1607  0.0111
    1W        W64147   7.003   6.380   2.934  0.1073 -0.2623 -0.1177
    1W        W64148  17.451  26.296   8.758 -0.0768  0.1147  0.1455
    1W        W64149  27.591  10.638   0.427  0.0435 -0.1210  0.0457
    1W        W64150  17.130   8.208   9.292  0.2459  0.1059  0.1252
    1W        W64151  18.966  16.326   7.711 -0.2845 -0.0893 -0.2180
    1W        W64152  12.263   1.440   2.088 -0.2630  0.0923  0.0912
    1W        W64153  17.864  13.321   0.926 -0.0420  0.0213 -0.0681
    1W        W64154  22.704   9.738   6.617 -0.0216  0.0080  0.0969
    1W        W64155   2.868  29.552   9.277 -0.0413  0.0272  0.0847
    1W        W64156  17.519   1.030   3.283  0.0323  0.4165 -0.4684
    1W        W64157  29.911  24.273   1.322  0.0768 -0.0603 -0.3943
    1W        W64158  15.656  12.906   7.648  0.1300  0.1363  0.1106
    1W        W64159  16.227  27.566   0.670 -0.0183  0.1207  0.1147
    1W        W64160   4.688   2.287   3.328 -0.3107 -0.2380 -0.1852
    1W        W64161   3.416  24.477   8.967 -0.2534  0.3265 -0.1215
    1W        W64162  21.256   0.677   1.063 -0.0587  0.1730 -0.0974
    1W        W64163  29.717  29.815   9.103 -0.0227 -0.1071  0.1035
    1W        W64164  18.537   8.867   8.160 -0.0658 -0.2253 -0.1086
    1W        W64165  27.209  29.655   7.598 -0.0631  0.0985 -0.1180
    1W        W64166  24.753  24.636   0.352 -0.0961  0.0533 -0.4383
    1W        W64167  16.972   3.076   3.381 -0.1395  0.0958  0.3107
    1W        W64168  16.601  23.111   2.215 -0.0157  0.2183 -0.0374
    1W        W64169  26.027   8.836   6.546 -0.0558  0.0233  0.1165
    1W        W64170   6.113  27.716   6.440 -0.1844 -0.0137 -0.0426
    1W        W64171  13.128  13.146   7.568 -0.0639  0.1427 -0.0463
    1W        W64172   0.299  22.644   7.862 -0.1154  0.1080  0.2300
    1W        W64173  10.761  26.207   2.858  0.1185  0.4560 -0.1072
    1W        W64174  12.089   3.396   1.503  0.0088  0.1016 -0.3505
    1W        W64175   1.902  26.987   7.750  0.1355 -0.2504  0.2399
    1W        W64176  22.975  16.030   8.304 -0.0497  0.3961  0.0006
    1W        W64177   9.190  19.681   8.809 -0.1680  0.1239 -0.1577
    1W        W64178  22.088  16.028   0.949 -0.0047  0.1556 -0.0684
    1W        W64179   3.470   2.049   0.152  0.2862  0.0824  0.0202
    1W        W64180  25.855   7.635   6.745  0.0172  0.3180 -0.0096
    1W        W64181  15.498  16.280   8.540  0.0891  0.2350  0.1511
    1W        W64182  28.259  28.650   2.989  0.1045 -0.1057  0.1319
    1W        W64183  20.146  24.537   8.038  0.0841 -0.0932 -0.2870
    1W        W64184  15.014  13.420   2.233  0.0278 -0.3085  0.1653
    1W        W64185  24.182   9.430   8.628 -0.0269 -0.0150  0.0301
    1W        W64186   2.394  27.767   7.333 -0.1847 -0.0500 -0.1304
    1W        W64187  16.534  22.366   7.053  0.3294  0.2792 -0.0094
    1W        W64188   3.470  25.389   8.526  0.1051  0.0360  0.0272
    1W        W64189  10.392   4.007   7.251 -0.0874  0.0876 -0.1443
    1W        W64190   5.411  25.114   7.292 -0.1915  0.0464 -0.3060
    1W        W64191  24.816   6.021   1.793  0.1508 -0.1710  0.2828
    1W        W64192  20.190  17.413   8.011  0.2543  0.2104 -0.1807
    1W        W64193   6.581  23.205   0.208  0.0055 -0.1795 -0.1284
    1W        W64194  28.792   4.254   2.444 -0.0380  0.1540 -0.2713
    1W        W64195   7.007   2.176   7.092  0.0660  0.0438  0.3467
    1W        W64196  16.053  12.974   8.815  0.2274 -0.0356 -0.1784
    1W        W64197   6.665  22.735   7.450  0.3978 -0.1320 -0.1586
    1W        W64198  25.728  12.264   5.138 -0.2915  0.0872  0.0087
    1W        W64199  17.428   4.376   8.053 -0.0569 -0.1644  0.2255
    1W        W64200   4.896  26.841   8.073 -0.0390 -0.4608 -0.0714
    1W        W64201  12.028  13.313   1.730 -0.1930 -0.0972 -0.1606
    1W        W64202  18.322  23.498   2.299  0.3510  0.0866 -0.4065
    1W        W64203  28.241  17.233   8.953  0.0412  0.0395  0.3602
    1W        W64204  15.531   6.033   0.817  0.0064 -0.0007  0.1098
    1W        W64205  19.874  14.396   9.017 -0.1211  0.3226  0.0255
    1W        W64206  29.969  25.683   7.521 -0.0371 -0.2020 -0.2409
    1W        W64207  19.112  19.159   8.725  0.0737  0.1729  0.1215
    1W        W64208  26.714  12.339   6.870  0.0157 -0.0804  0.0809
    1W        W64209  20.272   8.223   6.881  0.0407 -0.1693  0.0153
    1W        W64210   3.117  17.160   0.243 -0.0331  0.1901 -0.1704
    1W        W64211   3.079  21.983   9.227  0.1514  0.2997 -0.0748
    1W        W64212  29.070   3.434   6.777  0.0265 -0.0635  0.1133
    1W        W64213   0.855   0.996   7.871 -0.1782  0.0780 -0.1159
    1W        W64214  20.896  26.709   2.401  0.1120  0.0643 -0.0302
    1W        W64215  19.710  20.630   7.706  0.0034 -0.2328 -0.1022
    1W        W64216  12.060  17.485   8.397 -0.2257  0.0145 -0.4393
    1W        W64217  28.094   7.821   0.715 -0.0705  0.1791 -0.1669
    1W        W64218  11.473  20.139   9.009 -0.1203 -0.0073 -0.0975
    1W        W64219   7.847  23.073   6.460  0.0651  0.1739 -0.3792
    1W        W64220  13.913  15.573   1.592 -0.2971 -0.1233 -0.1778
    1W        W64221  11.437   8.307   0.358  0.0385  0.2621 -0.0228
    1W        W64222  23.620  19.908   7.806 -0.1971 -0.1566  0.2396
    1W        W64223  12.657  21.822   2.672  0.0564 -0.1201  0.0063
    1W        W64224   4.073  23.335   7.227  0.2140  0.0100  0.1837
    1W        W64225  14.419  24.376   1.626  0.1711  0.0347  0.1433
    1W        W64226   3.867   8.963   1.005  0.0179 -0.1054 -0.2502
    1W        W64227  29.670  27.760   0.869  0.2727  0.1286  0.0193
    1W        W64228   0.252   4.252   1.221  0.2121  0.0984 -0.2584
    1W        W64229  28.218   4.673   9.101  0.1300 -0.2668 -0.2074
    1W        W64230   8.663  24.985   2.197 -0.0476  0.0257  0.0665
    1W        W64231  18.283  11.288   7.367  0.1983  0.1242 -0.1001
    1W        W64232  14.730   9.561   7.383  0.3271  0.3609 -0.0859
    1W        W64233  20.808  17.362   8.814 -0.1223  0.1405  0.2930
    1W        W64234   6.399   3.080   1.730 -0.1160  0.0387 -0.2076
    1W        W64235  19.263  19.906   1.306 -0.1355 -0.0026 -0.2000
    1W        W64236  27.632   6.867   7.118  0.1391 -0.1985 -0.1352
    1W        W64237  17.472   9.946   1.991  0.2022  0.3215  0.3264
    1W        W64238  22.422   7.477   2.247  0.1873  0.3099 -0.1313
    1W        W64239   7.836  29.914   1.319 -0.0196  0.1774 -0.0008
    1W        W64240  23.504  25.521   0.168 -0.2577  0.1791  0.4313
    1W        W64241  25.858   6.587   6.310  0.0849  0.0881  0.0830
    1W        W64242  28.696   2.021   7.375  0.1997 -0.0919 -0.1747
    1W        W64243  14.394  18.381   2.165 -0.0736 -0.1815 -0.0313
    1W        W64244  29.747  14.421   6.943 -0.4006  0.0441  0.0701
    1W        W64245  11.491  17.693   7.836  0.0493  0.0295  0.1755
    1W        W64246   3.299  15.705   9.358 -0.1256  0.0042  0.1663
    1W        W64247  19.374  10.889   7.911  0.2642  0.0988  0.1032
    1W        W64248  17.836   9.829   7.420 -0.1792 -0.4382  0.2975
    1W        W64249  15.709  11.052   8.645 -0.1064  0.0630 -0.0238
    1W        W64250  17.056   9.153   7.058  0.2337 -0.0303  0.0356
    1W        W64251  18.154  19.429   9.394  0.5033  0.1440 -0.1032
    1W        W64252   4.222  17.220   1.412  0.1900 -0.1768 -0.2107
    1W        W64253  24.888  10.625   6.024  0.0704 -0.1099  0.1038
    1W        W64254  26.219  17.247   6.458  0.2640  0.0869 -0.0592
    1W        W64255  27.161   8.504   7.961 -0.1974 -0.1520 -0.0747
    1W        W64256  14.683  17.723   7.429 -0.3037  0.1473  0.2133
    1W        W64257  16.730  17.986   9.300 -0.3303 -0.2589  0.0185
    1W        W64258   3.435  10.192   5.919  0.1100  0.1196 -0.0968
    1W        W64259  12.263   5.398   0.860  0.2375  0.3392 -0.3787
    1W        W64260   6.728  16.767   9.338 -0.0255 -0.0710 -0.0090
    1W        W64261   6.117  23.363   0.372 -0.1332 -0.0323  0.2154
    1W        W64262  11.192   7.577   1.081 -0.1331  0.1890 -0.1816
    1W        W64263  19.901  26.507   2.101 -0.1984 -0.3614 -0.0430
    1W        W64264   7.127  23.558   8.935 -0.2637 -0.0994  0.0124
    1W        W64265  18.088  24.576   2.187 -0.2965  0.0561 -0.0188
    1W        W64266  14.033  28.083   0.410 -0.3216 -0.0272  0.0297
    1W        W64267  19.096   3.682   9.209  0.1087  0.0583 -0.0628
    1W        W64268  28.533   2.209   0.288 -0.1581 -0.0983 -0.0125
    1W        W64269   8.621  13.043   0.465 -0.1868  0.2104  0.0077
    1W        W64270   4.256   9.262   0.960 -0.3146  0.0910 -0.3609
    1W        W64271  28.952  20.132   4.834  0.2617 -0.3260  0.2590
    1W        W64272  18.436  18.110   1.363 -0.1585 -0.1941 -0.0262
    1W        W64273   5.922   2.039   7.456  0.1249  0.1209  0.0962
    1W        W64274  24.788  11.163   8.144 -0.1151 -0.0717  0.0025
    1W        W64275   8.155  16.111   7.106 -0.4169  0.2835 -0.0794
    1W        W64276   9.945   6.515   9.245 -0.1479  0.0120 -0.0287
    1W        W64277  25.473   0.914   8.445 -0.1844 -0.1918  0.0367
    1W        W64278   9.608  24.434   0.690  0.1520 -0.0013 -0.1706
    1W        W64279   3.501  22.601   5.705 -0.0619 -0.1081  0.1543
    1W        W64280   3.908   7.176   1.848  0.3152  0.0255  0.0048
    1W        W64281  25.908  23.119   0.556 -0.3243  0.0139 -0.0192
    1W        W64282  24.329  18.798   0.285  0.4241  0.0558 -0.1695
    1W        W64283  28.254  16.033   5.665 -0.0398 -0.1427  0.1633
    1W        W64284  21.210   0.452   8.473  0.1555  0.4490  0.1607
    1W        W64285  19.323  25.822   6.636  0.1251  0.0525  0.5657
    1W        W64286   1.779  18.760   0.959  0.0991 -0.3321 -0.0879
    1W        W64287  13.825  24.138   0.154  0.1448 -0.0725  0.0779
    1W        W64288   7.009  21.196   6.143 -0.0887  0.0831 -0.0508
    1W        W64289   1.273   5.127   8.589  0.0040 -0.0402  0.3552
    1W        W64290  19.295  11.013   0.310 -0.1201 -0.2333 -0.2125
    1W        W64291  19.235   7.159   1.736 -0.0747 -0.3684  0.1521
    1W        W64292  24.764  14.169   7.181  0.0778  0.2302 -0.0300
    1W        W64293  29.048  10.240   8.846  0.4161  0.0810  0.2630
    1W        W64294   7.221   8.238   0.170  0.0887  0.2212  0.0760
    1W        W64295  24.811  16.403   5.724 -0.0477  0.1629 -0.0056
    1W        W64296  20.315  10.485   2.203  0.1363 -0.0673 -0.2768
    1W        W64297  28.725   2.662   2.727 -0.1869 -0.0308  0.1354
    1W        W64298  11.447  10.768   1.100 -0.0215  0.0238 -0.0389
    1W        W64299   6.690  15.937   0.963  0.2592  0.0398  0.1091
    1W        W64300  25.047  28.416   8.367 -0.1737 -0.2085  0.0951
    1W        W64301  27.737  20.218   0.467 -0.0317  0.0214 -0.0281
    1W        W64302  16.159  22.847   7.188 -0.1579  0.1383  0.0449
    1W        W64303   5.351  28.599   7.722  0.1221  0.5098  0.0882
    1W        W64304  24.368  16.428   6.542  0.2346  0.0654 -0.2787
    1W        W64305   2.390   2.410   3.654 -0.0593 -0.0578  0.2950
    1W        W64306  20.564  19.927   6.254  0.2658  0.0286  0.2893
    1W        W64307  12.273   1.274   2.924 -0.0599  0.0407 -0.0324
    1W        W64308  26.906  23.497   2.204 -0.1254 -0.1676  0.0892
    1W        W64309  11.757  29.338   1.654  0.0226 -0.0223 -0.1617
    1W        W64310  11.449   1.424   1.770 -0.0362  0.1502 -0.1949
    1W        W64311   4.776  11.512   2.187  0.0241 -0.1261 -0.0790
    1W        W64312  29.760  23.861   0.965 -0.0000  0.1265 -0.0189
    1W        W64313  22.445  18.698   8.363 -0.1043  0.0177  0.1786
    1W        W64314  13.636   0.214   0.881 -0.0350  0.1854  0.2935
    1W        W64315  18.504  21.035   7.792  0.0070 -0.1945  0.0935
    1W        W64316  20.726   8.019   2.421  0.0243 -0.1671 -0.1502
    1W        W64317  11.168  16.181   9.051  0.0700  0.1304  0.0179
    1W        W64318   7.778  25.349   2.636  0.0617 -0.4197 -0.0048
    1W        W64319  22.827   9.240   7.519 -0.1992  0.3371 -0.2076
    1W        W64320  17.849  11.195   7.656  0.3826  0.1515 -0.2542
    1W        W64321  20.031  16.070   8.465  0.0361 -0.0782 -0.0176
    1W        W64322  19.293  19.845   1.839 -0.4125  0.1049 -0.2091
    1W        W64323  12.595  24.791   1.663  0.0374  0.0429 -0.0987
    1W        W64324   9.969  24.336   7.899  0.2878  0.0140  0.1703
    1W        W64325   5.679  22.598   1.290 -0.1217  0.0804  0.1426
    1W        W64326   7.009  12.476   8.822  0.1077  0.2316  0.0216
    1W        W64327  22.569   0.754   0.656  0.1503 -0.2356  0.1052
    1W        W64328   5.032   3.635   2.904  0.0162  0.4479 -0.1237
    1W        W64329  22.521  21.499   9.156  0.2255  0.1538 -0.1107
    1W        W64330  24.480  13.517   0.401  0.1815  0.0101  0.0301
    1W        W64331  18.856   1.592   9.065 -0.0615  0.0649  0.0403
    1W        W64332   1.867  11.115   8.722  0.3177  0.2056  0.0747
    1W        W64333   4.064  21.997   8.325  0.3171  0.1916 -0.0955
    1W        W64334  17.131   6.308   9.127 -0.0099  0.0391 -0.2216
    1W        W64335   9.630  16.850   7.318  0.3799 -0.1877  0.1274
    1W        W64336   3.472  12.211   2.642  0.0121  0.0580 -0.1940
    1W        W64337  21.703  15.327   1.258  0.1162 -0.0317 -0.1330
    1W        W64338  22.447  13.723   0.196  0.4028 -0.2501  0.0265
    1W        W64339  17.264   0.263   9.272 -0.2353 -0.0132  0.1826
    1W        W64340  18.379  23.404   9.094  0.1461 -0.3279  0.3913
    1W        W64341  13.876   5.307   1.653 -0.0414 -0.1551 -0.0524
    1W        W64342  19.427  28.201   7.555  0.2306 -0.1124  0.3562
    1W        W64343  21.637  17.939   0.178 -0.4026  0.2288 -0.4391
    1W        W64344   0.593  18.218   7.977  0.1830  0.0203 -0.0783
    1W        W64345   2.335  12.595   2.593 -0.0013 -0.2486 -0.0634
    1W        W64346  19.697  19.191   8.198 -0.0941 -0.0503 -0.0780
    1W        W64347  13.280   4.212   2.100  0.2506 -0.1482  0.1210
    1W        W64348  22.275  27.879   0.485 -0.2101 -0.2288 -0.2073
    1W        W64349   5.397  22.349   5.796 -0.1611 -0.0291  0.1045
    1W        W64350  20.420  14.299   6.930  0.2774  0.0455 -0.0597
    1W        W64351  19.163  14.514   0.802  0.0607 -0.2871  0.0655
    1W        W64352   2.612  16.894   8.839 -0.1410 -0.1582  0.1179
    1W        W64353  20.288   9.009   9.067  0.1400  0.1459 -0.0000
    1W        W64354  16.294  28.605   1.178  0.1936 -0.1652 -0.3042
    1W        W64355   4.640  22.086   8.993 -0.0745  0.1361  0.1233
    1W        W64356  16.733   4.499   9.292 -0.0051 -0.0487  0.0636
    1W        W64357  15.657  18.688   8.043 -0.1326  0.1546 -0.1616
    1W        W64358  20.032   0.044   1.545 -0.0840  0.1463  0.1754
    1W        W64359  25.909  16.911   6.735  0.2169 -0.2214  0.1686
    1W        W64360   7.878  25.629   8.559  0.1886 -0.0284  0.2331
    1W        W64361   8.462   4.590   8.987  0.2315 -0.3406  0.1947
    1W        W64362  14.517  19.426   2.096  0.2170  0.0519 -0.0778
    1W        W64363   2.322  15.925   9.064 -0.2884 -0.2422 -0.3749
    1W        W64364  15.599  13.612   1.719 -0.1221  0.0113  0.1955
    1W        W64365  16.466  21.699   0.793  0.0921  0.1835  0.3276
    1W        W64366  21.839  13.608   1.607 -0.4600 -0.0739  0.2061
    1W        W64367  15.822   1.197   6.733 -0.1585  0.2637 -0.0159
    1W        W64368  18.137   1.650   7.508  0.2322 -0.2347 -0.1969
    1W        W64369   3.925   7.825   1.827  0.1675 -0.3583 -0.1195
    1W        W64370  26.267   1.001   9.315  0.1592 -0.3972 -0.2058
    1W        W64371  15.862  16.609   7.744 -0.1043  0.0816 -0.2505
    1W        W64372  27.123   3.506   1.099 -0.2341  0.0106  0.0743
    1W        W64373   2.286  19.735   9.392 -0.0230 -0.0615  0.2806
    1W        W64374  15.624  27.390   1.157 -0.2429  0.2575  0.0566
    1W        W64375  11.059  25.084   7.897 -0.0849  0.2221 -0.3987
    1W        W64376  19.204  25.246   1.059  0.3321  0.0349  0.2891
    1W        W64377   0.507  23.212   1.534 -0.5966  0.0518 -0.0700
    1W        W64378  24.814  20.601   9.341 -0.0881 -0.1992  0.2930
    1W        W64379   7.890  29.072   7.476  0.1996 -0.0599 -0.1316
    1W        W64380  27.299  11.539   0.630  0.3358 -0.0955  0.0371
    1W        W64381  12.884   6.615   7.908 -0.2746  0.1432 -0.2760
    1W        W64382  21.678  26.072   6.779  0.3168  0.1259 -0.3689
    1W        W64383   2.997  10.702   1.525 -0.1618  0.0434  0.2111
    1W        W64384   3.481  21.252   7.717 -0.3285  0.1259 -0.0554
    1W        W64385  15.693   1.290   7.915  0.1807  0.0107 -0.0318
    1W        W64386   6.746  10.596   0.557  0.0516  0.2649 -0.0764
    1W        W64387  24.473  26.774   0.860  0.2092  0.0089 -0.2812
    1W        W64388  20.442  28.178   8.373  0.1444 -0.0100  0.1016
    1W        W64389   7.217  25.191   8.876  0.0708  0.0818 -0.3188
    1W        W64390  16.487  11.583   1.576 -0.1598 -0.0490  0.2109
    1W        W64391  27.016  20.999   7.660  0.2237  0.0448  0.3000
    1W        W64392  27.115  15.930   9.241  0.1108 -0.1176  0.3751
    1W        W64393  17.450  22.226   7.588  0.1812 -0.0504  0.1925
    1W        W64394  17.308  29.193   0.290  0.0088 -0.1814 -0.0507
    1W        W64395  14.546  22.100   8.573 -0.0242  0.1452  0.0250
    1W        W64396  24.706  19.706   2.040  0.0725  0.1312 -0.0958
    1W        W64397   3.281  28.502   1.411 -0.0807 -0.1384  0.4176
    1W        W64398  16.417  10.033   1.053 -0.1799 -0.1287 -0.4035
    1W        W64399   3.810   9.011   0.024 -0.4293 -0.0316 -0.1122
    1W        W64400  20.889   3.555   7.421 -0.0598  0.3672  0.4536
    1W        W64401   6.931   1.418   0.226 -0.1535 -0.1946  0.2282
    1W        W64402  23.841  19.110   0.762 -0.0037 -0.2485  0.0669
    1W        W64403  16.325  26.386   2.855  0.0261 -0.0192  0.0655
    1W        W64404  20.523  19.088   8.724 -0.2093  0.0661 -0.2157
    1W        W64405  11.800   8.146   1.563  0.0808  0.2432  0.0272
    1W        W64406  19.543   4.992   0.943  0.1138  0.1663  0.3210
    1W        W64407  26.460  15.753   6.074 -0.0249 -0.0394 -0.2741
    1W        W64408   3.575  28.061   0.673 -0.0529 -0.0133 -0.2296
    1W        W64409  12.068  13.725   8.991  0.1507  0.2406  0.1812
    1W        W64410  19.793   2.539   1.009 -0.0928  0.0689  0.0099
    1W        W64411  14.242  11.717   0.755  0.0092  0.0402 -0.0872
    1W        W64412  13.007  26.526   8.941  0.0398  0.0384 -0.0770
    1W        W64413   0.867   9.024   2.165  0.2902 -0.0087  0.1013
    1W        W64414   5.530  18.232   6.977  0.1482 -0.1293 -0.0988
    1W        W64415  13.027   5.290   9.405 -0.3010  0.3690 -0.1329
    1W        W64416   3.741  16.000   7.956 -0.2759 -0.0864  0.1867
    1W        W64417  25.268  15.364   5.882 -0.2001  0.0558 -0.0768
    1W        W64418   6.359  19.585   7.565 -0.1314 -0.0534 -0.1671
    1W        W64419  29.081   9.374   6.076 -0.0028 -0.2272 -0.0814
    1W        W64420  27.021  23.703   7.576 -0.3227  0.1003 -0.1127
    1W        W64421  29.655   8.100   6.001  0.4114  0.1366 -0.0178
    1W        W64422   2.760   9.041   2.224 -0.1215  0.0152 -0.0728
    1W        W64423  16.464  20.244   8.029  0.0222  0.0138 -0.2402
    1W        W64424  16.651  10.296   1.407  0.2738  0.0175 -0.0231
    1W        W64425   6.515   2.195   8.670  0.0529 -0.0853 -0.3373
    1W        W64426  29.294   6.835   2.215  0.4487 -0.0225 -0.1054
    1W        W64427   4.083   6.975   3.404  0.2980  0.0048 -0.1473
    1W        W64428  11.590  11.473   0.309 -0.1033  0.1512  0.3468
    1W        W64429  28.077  12.014   1.241 -0.2104 -0.1804 -0.0948
    1W        W64430  25.312  29.511   0.664  0.0046  0.0702 -0.0826
    1W        W64431  17.640  14.912   9.288  0.0329  0.1575 -0.1679
    1W        W64432  23.036  18.559   1.113 -0.1358  0.2552 -0.0206
    1W        W64433  26.322  14.615   5.891 -0.0637 -0.0137 -0.0936
    1W        W64434  28.982  11.251   8.811 -0.1643  0.0570 -0.1302
    1W        W64435   6.189  11.986   2.955 -0.1328  0.0424  0.1127
    1W        W64436  13.661  16.144   1.489  0.0182 -0.3975  0.2323
    1W        W64437   6.126   6.405   2.070  0.0431 -0.3159  0.2728
    1W        W64438   1.586   6.166   8.997 -0.0892 -0.1063 -0.0573
    1W        W64439   6.750  22.482   7.898 -0.1284  0.3058 -0.0092
    1W        W64440   9.567  16.076   7.587  0.1787  0.1187 -0.1393
    1W        W64441  17.513  23.243   2.554  0.2590  0.0529  0.3318
    1W        W64442   9.870   6.316   2.541  0.1232 -0.3338  0.2834
    1W        W64443   3.801   9.666   8.849 -0.1142 -0.4311  0.1956
    1W        W64444  29.563  13.032   8.225  0.2773  0.1854 -0.1669
    1W        W64445   0.644   2.528   7.173  0.0131 -0.1148 -0.1770
    1W        W64446  16.482  21.053   7.105 -0.1763 -0.0609  0.1159
    1W        W64447   0.618  22.751   1.681 -0.0426 -0.1822  0.1921
    1W        W64448   6.487  23.843   8.314 -0.0351  0.1380 -0.0210
    1W        W64449  11.662   7.266   0.266 -0.1047  0.1147  0.2275
    1W        W64450  14.979  15.011   7.456  0.2035  0.2163 -0.2216
    1W        W64451  23.999   6.177   1.668 -0.1053  0.1178  0.0268
    1W        W64452  26.263  19.685   1.458  0.1071  0.0671  0.0280
    1W        W64453  22.336  10.496   0.917  0.3768  0.0932  0.4033
    1W        W64454   3.188  14.082   9.257 -0.0760  0.1710  0.2362
    1W        W64455  10.852   2.111   0.451  0.0127 -0.0695  0.0383
    1W        W64456  22.224  25.540   1.665  0.1843 -0.0578 -0.0800
    1W        W64457  17.394   4.583   1.904 -0.1301 -0.0839  0.2582
    1W        W64458  10.096   4.888   7.654  0.3153  0.3514 -0.2785
    1W        W64459  11.281  19.655   7.305  0.3986 -0.0177 -0.3531
    1W        W64460  22.969  26.225   0.444 -0.2240 -0.2052  0.1928
    1W        W64461  13.048  25.200   7.873  0.0432 -0.1428  0.0461
    1W        W64462  12.374   8.249   8.209  0.0013 -0.0988  0.0533
    1W        W64463  16.866   2.596   8.043 -0.0906 -0.0214 -0.1190
    1W        W64464  21.526   1.673   1.862 -0.1360 -0.0083 -0.0836
    1W        W64465   0.023   0.081   2.287  0.0466 -0.1423 -0.3506
    1W        W64466  24.588  22.541   7.057  0.0290 -0.0716  0.1336
    1W        W64467   7.448  13.403   7.647 -0.1338 -0.2835 -0.3093
    1W        W64468  27.925  23.627   7.144 -0.0445 -0.2178  0.0741
    1W        W64469   0.181  29.949   1.404 -0.0079 -0.1717  0.1091
    1W        W64470  21.086   0.194   1.777 -0.1035 -0.0695  0.4078
    1W        W64471   7.379  22.022   7.367  0.0493 -0.1339  0.0124
    1W        W64472  25.808  27.454   2.692  0.1647 -0.1103  0.0381
    1W        W64473   8.010   0.585   8.461  0.1427  0.0638 -0.1950
    1W        W64474  22.418  23.776   9.353 -0.1573 -0.0801 -0.1979
    1W        W64475   6.258  18.043   1.578  0.1912 -0.0260 -0.1683
    1W        W64476  18.720  20.373   1.914 -0.0053 -0.4870 -0.3505
    1W        W64477  12.100  25.230   7.870  0.1102  0.2012 -0.0909
    1W        W64478  10.396  27.996   6.455  0.1399 -0.1495  0.0839
    1W        W64479  13.729   4.462   1.353  0.1751 -0.2651 -0.1488
    1W        W64480  16.489   7.638   0.812  0.0589 -0.0858  0.1683
    1W        W64481  28.587  24.216   7.599  0.0702 -0.2356 -0.1461
    1W        W64482  24.047  27.154   6.853 -0.0995 -0.0372  0.1304
    1W        W64483  13.782  18.627   0.437 -0.0433 -0.5675 -0.0699
    1W        W64484  24.194  12.004   0.560  0.0764 -0.2218  0.0745
    1W        W64485  10.896  15.516   1.022 -0.1118 -0.2095 -0.2451
    1W        W64486  27.655  24.800   1.678 -0.0358 -0.1514 -0.1852
    1W        W64487  26.923  19.911   7.700 -0.0925 -0.0264 -0.0807
    1W        W64488   4.373  24.268   6.625  0.0317 -0.1084 -0.2600
    1W        W64489  29.837  19.273   0.620 -0.2249 -0.0634  0.0184
    1W        W64490  14.043  28.811   2.794 -0.2572 -0.0121 -0.0895
    1W        W64491  18.309   2.390   8.208 -0.0657  0.1406 -0.1244
    1W        W64492   3.719   0.292   0.546  0.0538  0.2734 -0.0051
    1W        W64493   6.536  23.156   8.708 -0.3391 -0.0050 -0.1327
    1W        W64494  28.252   2.234   7.269  0.2871 -0.2081  0.2245
    1W        W64495  22.543   2.383   8.043 -0.0927  0.0492  0.0235
    1W        W64496  18.791  29.216   2.893  0.2249  0.1086  0.0515
    1W        W64497   0.678   5.685   0.431  0.3830 -0.3384 -0.1356
    1W        W64498  25.221  13.620   2.130 -0.3563  0.2984 -0.2371
    1W        W64499   1.395   1.866   1.836  0.1018 -0.3238  0.0204
    1W        W64500   5.684  19.476   0.973  0.2167 -0.0700  0.0408
    1W        W64501   9.351  16.418   9.028  0.2516 -0.1744 -0.0333
    1W        W64502   7.493   7.980   4.059 -0.2138 -0.1030 -0.2203
    1W        W64503  24.815   5.472   9.147 -0.2742 -0.0545  0.3392
    1W        W64504  14.027  16.052   8.924  0.1431  0.0108  0.3216
    1W        W64505  25.273  15.857   8.280 -0.2781  0.0406 -0.4492
    1W        W64506   4.512  21.110   7.308 -0.1160 -0.3363 -0.1638
    1W        W64507   5.335   8.610   2.141  0.1225  0.1019  0.0540
    1W        W64508  23.743  16.236   1.758 -0.1407 -0.1005 -0.0484
    1W        W64509  19.521  25.448   8.582  0.1018 -0.2124  0.1304
    1W        W64510  22.311   9.525   2.187  0.0060  0.1617 -0.0764
    1W        W64511  22.562  22.073   1.329  0.1220  0.1369  0.0638
    1W        W64512  16.159   8.245   8.247  0.2630  0.0856  0.0778
    1W        W64513  24.547   0.789   8.676 -0.2322  0.0408  0.4234
    1W        W64514   9.030  24.928   9.124 -0.0443  0.0863  0.0660
    1W        W64515   0.419   4.657   5.882 -0.2883 -0.4221  0.2074
    1W        W64516  28.483  12.213   7.618  0.0086 -0.0577  0.0549
    1W        W64517  10.038  16.070   0.993 -0.1116  0.2832  0.2928
    1W        W64518  18.870   0.910   0.796  0.0588 -0.0508 -0.1887
    1W        W64519  19.607  10.948   9.210 -0.0498  0.0703  0.0412
    1W        W64520  18.098  28.769   2.328  0.0812 -0.1270 -0.5302
    1W        W64521  26.114  14.277   7.412 -0.2885  0.3086  0.0730
    1W        W64522   0.814  20.367   7.036  0.2925 -0.3615  0.2607
    1W        W64523  18.172  17.489   7.471  0.0888 -0.1791  0.1739
    1W        W64524  27.074  18.104   9.209  0.1303 -0.2350 -0.1013
    1W        W64525  14.583   1.771   8.349  0.0278 -0.1372 -0.2069
    1W        W64526   5.960   8.185   2.127 -0.1933 -0.3389  0.1372
    1W        W64527   6.581  14.954   1.542  0.2691  0.1159  0.0004
    1W        W64528  24.812  22.089   8.919  0.1601 -0.0891  0.2766
    1W        W64529  26.902   7.684   6.886  0.0050  0.1607 -0.0526
    1W        W64530   5.207  20.372   6.905 -0.1222  0.2002  0.1614
    1W        W64531  12.410   3.868   8.904 -0.1373 -0.1673 -0.2707
    1W        W64532  13.360  16.449   8.097 -0.2378 -0.0357 -0.1005
    1W        W64533  27.823  15.481   6.778 -0.2028 -0.1242  0.2438
    1W        W64534  14.478  20.408   8.591 -0.0698 -0.2475  0.2780
    1W        W64535   2.279   5.067   6.576  0.0951 -0.0606  0.3348
    1W        W64536  27.695  22.858   1.088  0.0803 -0.2882  0.0954
    1W        W64537  23.084  15.039   8.246  0.1380 -0.0798  0.4782
    1W        W64538  16.121  25.650   6.870 -0.0219 -0.1181  0.1374
    1W        W64539  17.899   0.596   7.451 -0.0755  0.1210 -0.2367
    1W        W64540  20.699  19.447   6.104 -0.1669  0.0167 -0.0222
    1W        W64541   9.714  23.189   6.471  0.0455  0.0619  0.0345
    1W        W64542   8.940  28.038   8.048 -0.0810 -0.0553 -0.3914
    1W        W64543  22.337   7.264   3.029 -0.1343  0.1142 -0.0557
    1W        W64544  15.249   1.709   7.387 -0.0031 -0.0503  0.1529
    1W        W64545   1.643   9.275   7.664 -0.1281 -0.0744 -0.0688
    1W        W64546   3.534   3.204   8.180 -0.0581 -0.2911  0.3158
    1W        W64547   7.416  10.310   0.330 -0.0795  0.1845  0.0257
    1W        W64548  11.849  13.859   9.392  0.1599  0.1638  0.1927
    1W        W64549  28.912   9.233   7.368 -0.2301  0.0264 -0.1956
    1W        W64550   4.794  21.030   6.333  0.1840 -0.0163  0.3623
    1W        W64551  24.141  28.307   8.633 -0.0080 -0.0420 -0.1246
    1W        W64552  26.417  18.599   0.197 -0.2742  0.2201  0.0789
    1W        W64553   2.668  28.243   8.819 -0.3021  0.0839  0.1459
    1W        W64554  22.419  13.447   6.474 -0.1435  0.1941 -0.1449
    1W        W64555   1.098  17.968   7.942 -0.0842  0.5192  0.0116
    1W        W64556  15.677  12.062   8.108 -0.0339 -0.0582  0.1897
    1W        W64557   7.360  29.370   0.254 -0.2072 -0.0687  0.2496
    1W        W64558  20.551  19.504   0.491 -0.0386  0.1821  0.0341
    1W        W64559  23.163  10.974   6.578 -0.1067  0.2200 -0.1398
    1W        W64560  16.230  16.370   7.320  0.3256  0.2806  0.1902
    1W        W64561  21.229   9.944   7.838 -0.1008 -0.0723  0.0170
    1W        W64562  24.057  22.466   1.129  0.0913 -0.0492  0.2947
    1W        W64563  24.598   1.630   8.961 -0.0136  0.0551  0.3790
    1W        W64564  12.914  24.127   7.571 -0.0512 -0.0058 -0.0074
    1W        W64565   9.743   2.445   3.428  0.3630 -0.0798 -0.0365
    1W        W64566  12.028   6.773   1.833  0.4062 -0.0776  0.0917
    1W        W64567  15.248  26.065   7.993 -0.2189  0.1124  0.0942
    1W        W64568  19.613  11.618   7.095  0.1269  0.0300 -0.0052
    1W        W64569  15.717  11.570   0.093 -0.0424 -0.2251  0.3884
    1W        W64570   4.291  25.703   9.073  0.1196  0.2358  0.0095
    1W        W64571   2.422  12.460   0.875  0.0424  0.0689  0.3409
    1W        W64572  17.539  18.531   0.103  0.2931  0.2772  0.1722
    1W        W64573   7.674   1.467   6.708  0.1825  0.0976 -0.2040
    1W        W64574  14.847   1.505   7.120  0.0784 -0.0918 -0.0998
    1W        W64575   1.601   3.986   6.579 -0.1885  0.0269 -0.1026
    1W        W64576   9.803   5.332   8.667  0.2373  0.3380  0.0603
    1W        W64577  18.840  29.782   0.209 -0.0075 -0.1635 -0.3105
    1W        W64578  16.575  10.841   1.330  0.3936  0.2360  0.1022
    1W        W64579   4.147  10.191   1.914 -0.3038 -0.2944  0.0030
    1W        W64580   3.171   3.779   0.165  0.2974 -0.0149  0.2232
    1W        W64581  27.137  23.123   0.321 -0.0349  0.1022 -0.3483
    1W        W64582   9.325   9.028   8.684 -0.0712 -0.2132 -0.0087
    1W        W64583  25.814  19.129   7.262 -0.3244  0.0879  0.1788
    1W        W64584  22.865  29.317   0.142 -0.0261 -0.0904 -0.3467
    1W        W64585  15.081  11.985   2.645 -0.0317 -0.1373 -0.3680
    1W        W64586   4.155   5.809   7.937  0.0031  0.2183 -0.0750
    1W        W64587  24.985   3.256   7.755 -0.0780  0.0356 -0.1021
    1W        W64588   6.357  24.609   0.412 -0.0142  0.2412 -0.1449
    1W        W64589   4.456  25.713   0.797 -0.0019  0.0733  0.0841
    1W        W64590  15.325  16.913   7.804  0.0915 -0.1023 -0.2292
    1W        W64591  28.984   8.737   8.801  0.1300 -0.0745  0.0149
    1W        W64592  25.200  29.524   1.172 -0.1820 -0.2161 -0.1568
    1W        W64593   7.398   7.760   3.038  0.0684 -0.1608  0.0959
    1W        W64594   2.683   4.609   0.429 -0.1164  0.0461  0.0957
    1W        W64595   5.759   7.657   8.464 -0.3043  0.1329 -0.0034
    1W        W64596  19.021   1.961   7.748 -0.1797 -0.3273  0.0903
    1W        W64597  27.571  26.050   9.288 -0.4406  0.0074  0.1095
    1W        W64598  25.195  27.836   2.747 -0.4670  0.1979 -0.0662
    1W        W64599  30.008  26.828   2.208 -0.1906  0.1334  0.0132
    1W        W64600  15.576  26.336   1.611 -0.3221  0.0010  0.3620
    1W        W64601   2.524  28.713   1.509 -0.2721  0.0719 -0.2116
    1W        W64602  11.792  24.543   1.782  0.1222 -0.1394 -0.1405
    1W        W64603  14.941  24.052   8.841 -0.1523  0.2628 -0.1935
    1W        W64604   8.370   4.372   7.206  0.2926  0.1245  0.2307
    1W        W64605  25.926  10.608   8.672 -0.0346 -0.0712  0.4401
    1W        W64606   0.966  21.329   8.529  0.2616  0.1181  0.1258
    1W        W64607  18.946   2.301   3.504 -0.0948  0.1151  0.0375
    1W        W64608   6.758  17.234   9.232 -0.0089  0.1697  0.0921
    1W        W64609  25.508  15.246   0.945  0.3693 -0.1824 -0.0558
    1W        W64610  24.384  19.315   1.887  0.0654 -0.3083 -0.0467
    1W        W64611  20.053  24.048   1.849 -0.0992 -0.0263 -0.0221
    1W        W64612   2.520  14.896   5.525  0.0691 -0.0577  0.0897
    1W        W64613   4.012  22.371   1.784  0.3964 -0.3653 -0.1240
    1W        W64614  19.929   0.840   0.628  0.0244 -0.0918  0.1956
    1W        W64615  15.754  19.483   7.742  0.0534 -0.0757 -0.1328
    1W        W64616  25.175  25.914   3.147 -0.3337 -0.2551 -0.0494
    1W        W64617  14.046   0.489   0.573  0.1797 -0.0917 -0.0549
    1W        W64618  23.020  23.311   8.600 -0.3935 -0.0640 -0.0990
    1W        W64619  17.691   6.138   0.857  0.1019 -0.0604 -0.0151
    1W        W64620   1.496   0.426   9.185 -0.1834 -0.0876 -0.3878
    1W        W64621   9.453  29.038   1.609  0.1208 -0.2860 -0.2084
    1W        W64622  17.781  15.084   7.259 -0.1452 -0.0870  0.0442
    1W        W64623  24.129  11.426   1.467  0.0874  0.3278  0.1776
    1W        W64624  18.151   1.978   1.564 -0.2113  0.1163  0.2401
    1W        W64625  16.597   3.172   0.410 -0.0777 -0.3524  0.1788
    1W        W64626   9.611  11.323   7.438 -0.0188 -0.1118 -0.0794
    1W        W64627  10.986  16.589   7.153  0.0085 -0.0717 -0.1538
    1W        W64628  27.521  10.807   0.910 -0.2627 -0.0141 -0.0836
    1W        W64629  27.698  23.942   1.754 -0.1820  0.0441  0.2040
    1W        W64630   5.654  17.667   7.943  0.3412 -0.0089 -0.1561
    1W        W64631   0.384  12.467   0.740 -0.1412  0.2186  0.2253
    1W        W64632   5.063  10.664   1.536 -0.0276  0.0125  0.2856
    1W        W64633  15.697   0.093   1.884 -0.1657  0.1499 -0.0763
    1W        W64634   7.320  18.663   2.340 -0.1980 -0.2725 -0.0571
    1W        W64635   5.048  14.403   8.030 -0.2673  0.1777  0.0242
    1W        W64636  27.060  15.178   2.363 -0.1804  0.0137 -0.2636
    1W        W64637  17.359  21.161   0.810 -0.2442 -0.0607 -0.1416
    1W        W64638  10.038  23.498   7.934 -0.0052  0.0541 -0.0438
    1W        W64639  12.278  14.074   1.949 -0.0240  0.0266  0.2392
    1W        W64640  11.977  12.998   2.601 -0.0182 -0.0244  0.1335
    1W        W64641  20.381  10.666   9.023  0.3912 -0.2084  0.2455
    1W        W64642  22.110   2.843   2.145  0.0807  0.0341  0.1488
    1W        W64643  28.139   2.858   8.227  0.3715 -0.1123 -0.3007
    1W        W64644  10.970  14.607   0.943  0.0853 -0.2536  0.0414
    1W        W64645   3.059   2.864   9.323  0.1110  0.0362 -0.0704
    1W        W64646   2.750  23.688   9.398 -0.2318 -0.1967 -0.0068
    1W        W64647  18.233  22.912   2.113 -0.1158 -0.0838  0.1340
    1W        W64648   6.312   4.242   1.570 -0.1466 -0.0603  0.0535
    1W        W64649  12.302  23.398   6.107  0.1478 -0.0151 -0.2401
    1W        W64650   3.255  11.239   0.787 -0.3536 -0.0213 -0.0409
    1W        W64651   6.318  17.619   6.274 -0.0522 -0.1357 -0.0570
    1W        W64652  26.630   0.230   8.470 -0.3995  0.0501  0.2507
    1W        W64653   8.565  22.430   7.060  0.0011  0.1331  0.1434
    1W        W64654  29.513  14.966   8.570 -0.1470 -0.1086  0.0015
    1W        W64655   7.859  29.818   2.717 -0.0642  0.4882 -0.2059
    1W        W64656  30.151  21.662   1.250  0.0545  0.0886 -0.3151
    1W        W64657   0.303  27.970   7.184  0.2503 -0.1849  0.0921
    1W        W64658  23.203   7.588   1.679  0.3045 -0.1000  0.0380
    1W        W64659  24.081  22.066   6.253  0.1644 -0.1584  0.0537
    1W        W64660  22.310  29.827   1.250  0.2681 -0.0012  0.2450
    1W        W64661   7.679  26.756   2.059 -0.1484 -0.2875  0.0809
    1W        W64662  14.433  12.197   8.625 -0.0039 -0.0575  0.2334
    1W        W64663  12.649  25.902   8.437  0.0417  0.0584  0.0115
    1W        W64664  16.025  22.981   2.335  0.0337 -0.1041 -0.3501
    1W        W64665  11.969  28.253   7.225  0.1548 -0.2461  0.1913
    1W        W64666   0.694   4.786   6.290  0.1828 -0.2405 -0.1688
    1W        W64667  29.238  28.832   2.570 -0.0703 -0.1421  0.1089
    1W        W64668  30.095  29.600   7.065 -0.0302 -0.0574 -0.1112
    1W        W64669  13.001  22.394   1.724 -0.1998 -0.1045 -0.2510
    1W        W64670  28.515   8.094   0.451 -0.1215 -0.1917  0.2889
    1W        W64671  10.531  12.439   8.297 -0.0667 -0.4098 -0.0842
    1W        W64672   3.998  29.770   1.015  0.2278 -0.0567 -0.1546
    1W        W64673  17.618  15.039   8.139  0.0802  0.0007 -0.0436
    1W        W64674  28.589  21.387   7.484  0.0535  0.0225  0.0495
    1W        W64675  13.876  22.027   8.854 -0.1919  0.1807  0.0294
    1W        W64676  10.858  21.149   6.204  0.3769 -0.2874 -0.0407
    1W        W64677  11.365  19.570   2.619  0.1312  0.2636  0.0230
    1W        W64678   1.339  27.744   7.099  0.0808  0.0946  0.0673
    1W        W64679  21.625  18.769   1.214  0.0852 -0.0363 -0.1284
    1W        W64680   5.754  28.327   9.050 -0.3287 -0.0857 -0.2256
    1W        W64681  20.964  12.196   6.486 -0.0651 -0.2545 -0.0731
    1W        W64682   0.132  27.741   7.626  0.2646 -0.0317 -0.0398
    1W        W64683   4.626  30.133   2.340  0.0627 -0.2995  0.2547
    1W        W64684  22.603   7.670   1.837 -0.2293  0.3166  0.2154
    1W        W64685   6.930  25.656   1.266 -0.0816 -0.2489 -0.0072
    1W        W64686   6.601  22.428   0.832  0.3363 -0.0739  0.1284
    1W        W64687  28.100   8.687   2.777  0.1655  0.1262  0.3130
    1W        W64688  16.723   8.839   2.542  0.1206  0.1342  0.3006
    1W        W64689   8.216   5.487   2.039 -0.1353  0.3259  0.4018
    1W        W64690  26.905  18.561   9.337  0.1157  0.1950  0.1660
    1W        W64691  24.203  21.745   6.899  0.0350  0.4248  0.2987
    1W        W64692  27.014   5.132   0.150 -0.1319 -0.0956  0.3280
    1W        W64693  19.197  21.672   0.285  0.1870 -0.3642  0.0464
    1W        W64694  16.087   4.505   1.473 -0.1624  0.1875  0.2031
    1W        W64695   7.115   3.306   2.677  0.1472 -0.2821 -0.1440
    1W        W64696   2.125  27.160   1.705 -0.0824  0.0782  0.2384
    1W        W64697  16.818   9.456   8.873  0.0570 -0.0183 -0.2900
    1W        W64698  10.131  15.458   8.750 -0.1785  0.1683 -0.1162
    1W        W64699   2.483  13.743   7.462  0.3280  0.0515  0.0510
    1W        W64700  17.047  16.803   0.606  0.2970 -0.2604 -0.1095
    1W        W64701  23.446   6.110   2.533 -0.1183 -0.1983 -0.1125
    1W        W64702   4.220   6.956   8.145 -0.1604 -0.0669  0.0038
    1W        W64703   0.511   6.014   0.045 -0.0719 -0.0105 -0.1634
    1W        W64704   8.698   9.134   8.049  0.1582 -0.0950  0.1601
    1W        W64705  27.228  15.520   5.668  0.0930  0.0160  0.1138
    1W        W64706   6.867  28.996   2.679 -0.0954 -0.0714 -0.1622
    1W        W64707  29.830  29.284   1.485  0.1800 -0.0139 -0.0381
    1W        W64708   1.848  22.661   8.822 -0.0214 -0.1301 -0.1012
    1W        W64709   2.176  27.088   8.431 -0.2343  0.1391 -0.1328
    1W        W64710  17.568   7.821   1.344  0.3173 -0.2847 -0.2142
    1W        W64711  19.762  19.457   6.470 -0.0292  0.0175 -0.1633
    1W        W64712   1.952  16.425   1.496  0.1872  0.2574 -0.2057
    1W        W64713  22.894   2.170   6.215 -0.0432  0.2414  0.1064
    1W        W64714  10.520  18.231   2.239 -0.1056  0.1224 -0.2231
    1W        W64715   8.207  11.602   8.659 -0.0863  0.1939 -0.0077
    1W        W64716  17.282  13.194   2.163 -0.1263 -0.3102  0.1900
    1W        W64717   1.786  22.165   6.078  0.1246  0.2966 -0.0627
    1W        W64718   2.824   9.594   8.530  0.1830 -0.3811 -0.0144
    1W        W64719  12.240  27.047   2.631  0.1170  0.2906 -0.1824
    1W        W64720   2.622  29.908   3.403  0.0083 -0.0278  0.0590
    1W        W64721   2.073  23.620   7.939  0.0868  0.1101 -0.0332
    1W        W64722   9.410  16.365   1.897  0.1129 -0.1551 -0.1840
    1W        W64723   1.818  23.429   0.142  0.2898 -0.0107 -0.1005
    1W        W64724  25.103   4.284   8.729  0.2001 -0.4380  0.0302
    1W        W64725  20.693  24.986   0.186 -0.0494 -0.1735 -0.1141
    1W        W64726  26.625  25.009   3.181 -0.1834  0.0207 -0.3480
    1W        W64727  27.841  24.605   0.223  0.2088 -0.2747  0.2084
    1W        W64728  17.779  25.204   8.003  0.0443 -0.2815  0.1041
    1W        W64729   8.266   2.745   2.823 -0.0548 -0.2329  0.1972
    1W        W64730  22.886   8.848   0.608  0.0226  0.0071 -0.3637
    1W        W64731  22.683  27.937   1.451  0.0822 -0.1645 -0.0865
    1W        W64732   5.781  11.180   6.901  0.1922  0.0067  0.0279
    1W        W64733  14.991   4.579   0.764  0.3935  0.2841  0.1055
    1W        W64734  20.099  16.197   0.061 -0.3612 -0.1503 -0.0762
    1W        W64735  18.712   9.688   6.506  0.4270 -0.3125  0.1259
    1W        W64736  18.428  28.379   2.664 -0.0795  0.1140 -0.1129
    1W        W64737  29.390  18.569   6.810  0.0400 -0.0222  0.2745
    1W        W64738  11.019   9.184   2.985 -0.0759  0.1956 -0.0693
    1W        W64739   3.056  27.297   3.222  0.0023  0.2325  0.1129
    1W        W64740  21.014  26.518   1.913  0.3455  0.0051  0.1334
    1W        W64741  10.172  13.972   2.344 -0.2031  0.4289 -0.0006
    1W        W64742  29.381   5.530   8.678  0.2613  0.1507  0.2668
    1W        W64743   4.806  17.186   0.141 -0.0649  0.0293 -0.1605
    1W        W64744   1.978   9.495   8.112 -0.0478  0.0036  0.1020
    1W        W64745   5.560   7.809   1.241  0.0268  0.3489  0.5718
    1W        W64746  23.088  15.475   9.170 -0.0473 -0.1715  0.1155
    1W        W64747   0.377   3.358   6.102 -0.2259  0.1600  0.0800
    1W        W64748   8.304  19.987   0.060 -0.0649  0.1639  0.1530
    1W        W64749  29.941  23.365   6.673 -0.1175 -0.0989 -0.0704
    1W        W64750  13.223  30.099   2.618  0.2286 -0.0151 -0.0577
    1W        W64751  17.823   2.084   3.048  0.1029 -0.0052 -0.0665
    1W        W64752  14.442  27.806   3.195 -0.1316 -0.1752 -0.0581
    1W        W64753  28.347  21.113   7.895  0.0306 -0.1691 -0.0062
    1W        W64754  15.287   5.772   7.947 -0.2121 -0.2424  0.2950
    1W        W64755  21.632  23.020   1.519  0.0117 -0.3532  0.2138
    1W        W64756   2.994   2.797   1.315 -0.0257  0.0263 -0.0786
    1W        W64757   8.400  19.236   7.168  0.1911 -0.0424 -0.0620
    1W        W64758  13.749  12.021   9.209  0.1991 -0.3348  0.2130
    1W        W64759  15.739  28.508   7.737 -0.2235  0.2313 -0.2029
    1W        W64760   4.646  24.836   7.798 -0.2065 -0.4091 -0.0727
    1W        W64761  12.356  11.868   7.335  0.0902 -0.1698  0.0046
    1W        W64762  20.786  23.472   2.264  0.0625  0.1395  0.4285
    1W        W64763   8.158  12.856   7.903 -0.1259 -0.4025 -0.1117
    1W        W64764  24.837  13.311   0.027  0.1081  0.2642  0.2038
    1W        W64765  22.147  29.916   7.542 -0.2796 -0.1904 -0.2979
    1W        W64766  15.224   1.269   3.557  0.1230  0.1094  0.0097
    1W        W64767  12.039  10.776   0.462 -0.0224 -0.2489 -0.0178
    1W        W64768  10.410  27.395   2.003 -0.1476  0.0465 -0.2758
    1W        W64769  10.008  22.100   8.450 -0.0709  0.2499  0.3772
    1W        W64770  17.671  26.789   7.617 -0.1985 -0.0949  0.2359
    1W        W64771   9.282   9.609   2.082 -0.0301  0.1927  0.0315
    1W        W64772  18.400   0.733   0.706 -0.3542 -0.2557 -0.2182
    1W        W64773  21.163  27.562   2.221  0.1614 -0.0050  0.1148
    1W        W64774  15.466   7.312   8.504 -0.1089 -0.1565 -0.0040
    1W        W64775  25.623   3.339   9.200  0.1212 -0.0209  0.0286
    1W        W64776  11.792  18.029   9.179 -0.0488 -0.0991  0.2897
    1W        W64777   9.582   9.433   8.869 -0.4048 -0.0357  0.0178
    1W        W64778  24.829  28.932   1.607  0.2197  0.2268  0.0075
    1W        W64779  18.493  21.764   7.916  0.0917  0.1689 -0.1516
    1W        W64780  25.351   2.066   7.663  0.2115  0.1073 -0.0634
    1W        W64781   5.029  11.135   7.076 -0.0649 -0.1035  0.0300
    1W        W64782   3.047   6.852   1.471  0.0272 -0.2146 -0.1846
    1W        W64783   9.662  19.215   2.024  0.0876  0.0875  0.3781
    1W        W64784   7.112   2.707   1.119 -0.0569 -0.1008 -0.2479
    1W        W64785   9.432   8.964   0.185 -0.0108 -0.5633  0.0067
    1W        W64786   4.034  19.449   6.898 -0.1337 -0.0554 -0.0636
    1W        W64787   9.464   6.625   1.665 -0.0485  0.2255 -0.0487
    1W        W64788  29.292  29.850   0.833  0.1360 -0.1714 -0.0751
    1W        W64789  25.262   6.291   1.675  0.2054  0.2171  0.2814
    1W        W64790  11.264  12.752   7.917 -0.0953  0.1221  0.2790
    1W        W64791  21.459  26.678   6.696 -0.1848  0.0278  0.2089
    1W        W64792  11.372  11.055   0.020  0.0643 -0.2259  0.0730
    1W        W64793   9.533  30.127   1.192 -0.0019 -0.1896  0.1633
    1W        W64794  17.621  29.929   6.924  0.0275  0.2681 -0.3069
    1W        W64795  21.624  16.259   1.838  0.1274 -0.1525  0.1474
    1W        W64796  17.566  15.155   1.805 -0.1814 -0.0809  0.0346
    1W        W64797  24.238   7.796   7.393  0.3245  0.0693  0.0011
    1W        W64798  26.138  16.056   1.578  0.1707 -0.1919  0.1803
    1W        W64799  13.934  30.131   3.387  0.0495  0.2809  0.0025
    1W        W64800   4.181   9.390   0.021  0.1194 -0.0210  0.1193
    1W        W64801  28.526  12.541   5.923 -0.0143  0.2836 -0.2907
    1W        W64802  13.464  23.068   7.251 -0.0263 -0.2334  0.2512
    1W        W64803  25.634   6.982   1.701 -0.2361  0.3449  0.0331
    1W        W64804   7.996   0.821   2.965 -0.2751 -0.2071 -0.1439
    1W        W64805   8.520   9.466   8.406 -0.0466  0.0686 -0.1038
    1W        W64806  18.435   3.687   2.126 -0.0284 -0.2168  0.2254
    1W        W64807  29.852  14.937   7.518 -0.2727 -0.3341  0.0376
    1W        W64808  22.895  24.113   1.973  0.0844  0.0616  0.2099
    1W        W64809  23.730  26.454   2.261  0.0652  0.0586  0.0343
    1W        W64810  25.546  27.047   0.426 -0.0005 -0.0258  0.2408
    1W        W64811   7.714  17.010   1.855 -0.1303 -0.2058  0.1761
    1W        W64812   5.539  10.053   2.400  0.1703  0.0075 -0.4721
    1W        W64813  23.178  18.118   0.410  0.2888  0.1454 -0.0931
    1W        W64814  10.445  18.000   8.423  0.2336  0.3366 -0.0358
    1W        W64815  19.478  25.557   1.275 -0.1479  0.0278 -0.4488
    1W        W64816   0.142  11.431   7.728 -0.0002 -0.0153  0.1534
    1W        W64817   8.484  12.595   1.144  0.1661 -0.0706 -0.3006
    1W        W64818  20.508  19.148   7.028 -0.0967 -0.1128 -0.0968
    1W        W64819   6.871   7.804   0.450  0.0455  0.2662  0.2346
    1W        W64820   3.577  13.631   1.872 -0.1348  0.0726 -0.4261
    1W        W64821   1.249  29.787   8.730  0.0042 -0.0978 -0.0289
    1W        W64822   0.510  16.357   0.242 -0.2160 -0.2821  0.0028
    1W        W64823  12.967   2.602   8.749  0.0964  0.1744 -0.0462
    1W        W64824  13.070  20.096   8.522  0.1746  0.1029  0.1410
    1W        W64825  11.695  18.204   7.856  0.0297 -0.1826 -0.2308
    1W        W64826  27.802  18.568   1.016  0.2086  0.0935  0.1827
    1W        W64827   5.270  27.447   8.913 -0.0329  0.2033  0.0525
    1W        W64828   4.009  27.732   0.851  0.0354  0.1058  0.1366
    1W        W64829  10.967  26.659   1.500  0.0144 -0.0457 -0.0155
    1W        W64830  27.625  27.467   2.720  0.1898  0.0651 -0.1327
    1W        W64831   3.620  23.343   0.334 -0.0805 -0.2780 -0.0190
    1W        W64832  19.876  22.764   1.010 -0.0686  0.0520 -0.3437
    1W        W64833  21.804   2.876   7.167 -0.3252 -0.1441  0.1487
    1W        W64834   1.891  25.466   1.092  0.1134  0.1731 -0.0478
    1W        W64835  11.245   3.775   9.168  0.1787  0.0685  0.0642
    1W        W64836   6.378  28.723   6.825  0.1143  0.1012 -0.1253
    1W        W64837   6.759  25.553   7.467 -0.4320 -0.0228  0.0570
    1W        W64838   3.906  20.782   6.012 -0.1749  0.1065 -0.3217
    1W        W64839   9.182   9.943   1.158  0.1915 -0.1901  0.0461
    1W        W64840   3.447  28.172   0.175  0.1405  0.0873 -0.0331
    1W        W64841   8.976  26.492   1.680  0.0789 -0.2956  0.1153
    1W        W64842  11.190   0.233   3.084  0.0840 -0.2868  0.0456
    1W        W64843   3.115   9.182   6.828 -0.0357 -0.0632 -0.2313
    1W        W64844   3.985   6.682   1.165  0.0279 -0.1780  0.0566
    1W        W64845  10.050   8.556   2.311 -0.2616 -0.4482  0.1522
    1W        W64846  28.514   1.822   6.946 -0.3522  0.0614 -0.0479
    1W        W64847  25.267  10.821   6.367 -0.2574 -0.2619 -0.0255
    1W        W64848  21.386  13.169   8.175 -0.0333  0.3019 -0.0249
    1W        W64849   5.555  27.875   8.793  0.0042  0.0573  0.1709
    1W        W64850  25.488   7.481   0.863  0.0032 -0.2966 -0.0097
    1W        W64851  12.347  27.810   7.454 -0.0751 -0.1647  0.2500
    1W        W64852  25.761  10.379   1.315  0.1821  0.1420 -0.1220
    1W        W64853   6.843  18.531   2.121 -0.3370 -0.0772 -0.2456
    1W        W64854  16.080  19.240   7.362 -0.2823  0.0594  0.0220
    1W        W64855  13.336  14.386   7.475  0.0986 -0.1464 -0.0464
    1W        W64856  11.532   8.643   2.507 -0.0648 -0.0054  0.4463
    1W        W64857  28.268   5.059   2.284  0.2773  0.1842  0.1991
    1W        W64858   8.733  29.612   8.171  0.3932  0.0172 -0.0079
    1W        W64859  12.726  12.158   8.261 -0.0522  0.0040 -0.1158
    1W        W64860   5.558  17.325   9.230 -0.0249 -0.1011  0.1794
    1W        W64861  22.839  25.696   0.157 -0.0472 -0.1144  0.1262
    1W        W64862   0.776  27.490   7.848  0.4600 -0.0472 -0.0458
    1W        W64863  13.165   7.888   2.352 -0.0174  0.0262  0.1699
    1W        W64864   4.598  27.634   8.171 -0.3598  0.0226  0.0842
    1W        W64865  28.573  25.815   0.383  0.0792  0.0860 -0.2264
    1W        W64866  14.025  14.769   1.263  0.5269 -0.1149  0.1704
    1W        W64867  20.141   6.948   0.142 -0.0485  0.0902 -0.1526
    1W        W64868  17.600  10.929   1.885 -0.2422  0.3085  0.0860
    1W        W64869  30.107  25.453   9.010  0.0827  0.1086 -0.2339
    1W        W64870  13.568   5.918   1.212  0.1926  0.0369  0.2644
    1W        W64871   5.167  19.230   9.205 -0.2070  0.1985  0.0373
    1W        W64872  26.412   1.928   7.211 -0.0178  0.1005 -0.2195
    1W        W64873   8.994   0.286   3.671 -0.2060  0.0390  0.1295
    1W        W64874  15.182  10.767   0.920 -0.1531  0.2260 -0.0143
    1W        W64875  19.757  17.776   8.240 -0.0236  0.2079  0.0199
    1W        W64876   7.469  22.822   6.724  0.0058  0.0701  0.1778
    1W        W64877   6.655   2.833   1.329 -0.0228 -0.1266 -0.2209
    1W        W64878   9.184  20.153   6.624  0.2263 -0.3038 -0.0226
    1W        W64879   5.741   2.474   2.270  0.1360  0.2972 -0.0439
    1W        W64880  27.799   2.721   1.072 -0.1736 -0.1765 -0.0095
    1W        W64881  18.888  14.212   7.013  0.0744  0.0542  0.0166
    1W        W64882   8.828   6.330   9.366  0.3628 -0.0886  0.1335
    1W        W64883  23.489   3.288   8.515 -0.0866 -0.1096 -0.2257
    1W        W64884   9.550  16.793   0.694 -0.0987 -0.2805 -0.2379
    1W        W64885   7.173   1.557   9.155 -0.0625 -0.0333  0.3177
    1W        W64886  17.708   2.285   1.420 -0.1033  0.2837  0.3344
    1W        W64887   6.233   8.283   1.144  0.0637 -0.1365 -0.0023
    1W        W64888  25.742  21.491   8.776  0.4880  0.1325 -0.1469
    1W        W64889   6.454  18.792   0.192 -0.0068  0.2173  0.2067
    1W        W64890  12.330  16.024   0.476 -0.2045 -0.0685  0.0600
    1W        W64891  17.312  10.442   9.002 -0.1070 -0.0267 -0.0489
    1W        W64892  16.141  16.724   0.089  0.0907  0.2432 -0.1472
    1W        W64893  10.449  28.425   8.192 -0.1784  0.1385 -0.0584
    1W        W64894  14.654   4.658   3.610 -0.0197  0.1931  0.1471
    1W        W64895  29.646  13.181   0.611 -0.0432  0.0910  0.1320
    1W        W64896  14.991  26.955   2.129 -0.0610  0.0021  0.1820
    1W        W64897   7.764  21.879   8.351  0.2261  0.0190 -0.1808
    1W        W64898   6.712  14.164   8.846  0.0513 -0.1969  0.2453
    1W        W64899   2.856  20.372   7.636  0.2243  0.1495 -0.1079
    1W        W64900  28.999  17.878   7.441  0.1930  0.1728 -0.0938
    1W        W64901   6.009   1.971   0.639  0.0144 -0.1621  0.0785
    1W        W64902  17.472  25.971   1.340 -0.0109  0.2043 -0.0279
    1W        W64903  21.683  29.876   2.439  0.1773 -0.0858  0.1955
    1W        W64904  14.848  22.211   0.395 -0.1912 -0.1711  0.0788
    1W        W64905  13.011  28.364   2.478 -0.1209  0.1353 -0.0755
    1W        W64906   3.582   0.091   8.133 -0.1621 -0.0590 -0.2203
    1W        W64907  13.809   6.460   7.968 -0.2358  0.0490  0.0895
    1W        W64908  17.604  19.629   0.566  0.2399 -0.1261  0.0434
    1W        W64909  25.511  16.275   5.978  0.1135 -0.0259  0.1121
    1W        W64910   8.417   0.246   7.592 -0.0960 -0.1853 -0.0040
    1W        W64911  11.041   7.233   8.793  0.4109  0.2876 -0.0145
    1W        W64912  16.391  15.075   7.814  0.3420  0.1585  0.0996
    1W        W64913  27.671   0.212   6.940  0.1666  0.1305 -0.4227
    1W        W64914  22.545   3.325   5.777 -0.1347 -0.1717  0.2601
    1W        W64915  12.748   7.660   2.472  0.1271 -0.0162 -0.1144
    1W        W64916  13.437  14.708   7.839 -0.0036 -0.0172  0.1608
    1W        W64917  29.370  14.161   6.014 -0.0855 -0.0557 -0.0495
    1W        W64918  12.107   4.940   1.025  0.1129 -0.1501 -0.1181
    1W        W64919  29.665  25.491   8.380 -0.0967  0.0257 -0.1387
    1W        W64920  16.861   5.215   3.021 -0.0121  0.2644 -0.1118
    1W        W64921   1.095   0.762   1.728 -0.0893 -0.0536 -0.3275
    1W        W64922  19.607  24.631   0.478 -0.2025  0.1957 -0.1173
    1W        W64923  14.541   0.231   2.588 -0.1897  0.0461 -0.2484
    1W        W64924  25.512   1.695   1.540  0.2947 -0.2987  0.2373
    1W        W64925   9.890   6.847   7.784  0.2750 -0.1003 -0.0632
    1W        W64926  14.148  26.400   2.299  0.0871  0.4926  0.0530
    1W        W64927  11.770   8.268   0.768 -0.0023  0.1780 -0.0414
    1W        W64928  24.634  13.069   0.468  0.0512  0.1814 -0.0840
    1W        W64929  12.736  12.913   8.008 -0.1661  0.0770 -0.1400
    1W        W64930  12.463  13.555   0.893 -0.1523 -0.3534  0.1417
    1W        W64931  27.145   7.170   0.265 -0.0908 -0.0138  0.3012
    1W        W64932  17.682  30.085   2.927  0.1960 -0.1566  0.0504
    1W        W64933  17.067   8.909   8.218  0.4171 -0.1661  0.3279
    1W        W64934  18.308   7.354   0.682 -0.1793  0.0058 -0.3558
    1W        W64935   6.692  24.829   7.547  0.1664 -0.1840 -0.1823
    1W        W64936   7.608   8.224   8.700 -0.1671 -0.2080 -0.1088
    1W        W64937   4.489  11.109   2.531 -0.1195 -0.0984 -0.1071
    1W        W64938  15.224  17.045   7.348 -0.2153  0.0499 -0.0659
    1W        W64939  11.674   1.903   4.270 -0.2561  0.3711 -0.1676
    1W        W64940  15.590  10.809   7.644  0.2502 -0.0135  0.0153
    1W        W64941   2.960  18.169   7.351 -0.0160 -0.4844 -0.2511
    1W        W64942  17.494   4.866   0.528  0.1802  0.0030 -0.0903
    1W        W64943   1.224  24.014   1.897  0.0381  0.0302  0.3633
    1W        W64944   3.712  12.746   1.918  0.1418 -0.1436 -0.2259
    1W        W64945  17.088  27.918   6.752  0.1124 -0.2012 -0.1293
    1W        W64946  17.257  15.545   6.965  0.1150  0.0264  0.0361
    1W        W64947  19.299  28.494   6.158 -0.2365 -0.3600  0.0869
    1W        W64948  27.471  12.897   6.019  0.2199 -0.0872 -0.2139
    1W        W64949  12.303  11.623   9.097 -0.0180  0.2833  0.0677
    1W        W64950  22.864   5.391   1.879 -0.0962 -0.0044  0.3373
    1W        W64951  19.395   2.973   7.893  0.3216  0.1496 -0.2370
    1W        W64952  16.397  19.364   8.997 -0.1952  0.2266 -0.1686
    1W        W64953  12.822  10.807   2.462  0.1297  0.2557 -0.0808
    1W        W64954  19.830  20.215   2.497 -0.0236  0.0870 -0.0977
    1W        W64955  24.801  27.533   0.969 -0.0475 -0.0500 -0.0233
    1W        W64956   9.688   8.938   3.359 -0.1430 -0.0344 -0.0818
    1W        W64957   2.408  26.802   1.223  0.0815  0.2263 -0.0708
    1W        W64958  24.845   9.071   7.865 -0.2958  0.1446  0.1667
    1W        W64959  28.591   5.852   2.282  0.1327 -0.1318  0.0481
    1W        W64960   8.028   4.724   2.445  0.2482 -0.1171  0.4445
    1W        W64961   8.139  15.314   1.626 -0.0129 -0.0724  0.0208
    1W        W64962  23.189   2.356   8.714 -0.0986 -0.0560 -0.0363
    1W        W64963   7.407   2.353   8.706  0.1747  0.0167  0.2564
    1W        W64964   5.399  11.376   8.599  0.1594  0.0705 -0.2773
    1W        W64965   7.126  15.168   0.785 -0.2968  0.0006 -0.0413
    1W        W64966  21.447  27.260   1.804 -0.0460 -0.4622 -0.2275
    1W        W64967  23.277   4.557   2.450  0.0520  0.0256  0.1643
    1W        W64968  24.525  29.989   0.475 -0.3108 -0.0283 -0.0454
    1W        W64969   2.387  13.945   6.613 -0.0240  0.0658  0.2007
    1W        W64970   1.681  17.463   1.170 -0.1905  0.0471  0.0952
    1W        W64971   7.468   6.855   8.442  0.1323  0.1522  0.0349
    1W        W64972  26.408   0.995   2.520 -0.0097  0.1450 -0.0779
    1W        W64973  15.680   7.875   2.903  0.2898 -0.1344  0.2475
    1W        W64974  10.155  25.639   1.845 -0.0301  0.2977  0.1630
    1W        W64975   0.860   1.000   2.064  0.1974 -0.1058 -0.0073
    1W        W64976  14.441  29.347   0.595  0.1218  0.3115 -0.0380
    1W        W64977   9.708   5.093   2.401 -0.0948 -0.2006  0.0973
    1W        W64978  25.225   4.588   2.538  0.0653 -0.1095  0.0554
    1W        W64979  18.318  13.306   9.233 -0.1582 -0.0202 -0.0618
    1W        W64980   3.323  10.556   9.087 -0.0640  0.2216  0.2080
    1W        W64981  29.498  29.299   3.907 -0.2037 -0.1525 -0.1355
    1W        W64982  20.735  17.191   1.872 -0.1297  0.1731  0.0005
    1W        W64983  24.622  27.153   8.203  0.3020  0.3037  0.0398
    1W        W64984  23.898   4.131   0.792 -0.0591  0.1995  0.1988
    1W        W64985  13.043   5.953   1.204 -0.2745 -0.1657 -0.1660
    1W        W64986  29.837   9.888   2.357 -0.0834  0.3183 -0.3370
    1W        W64987  22.510   1.251   9.179 -0.0281 -0.0117  0.0208
    1W        W64988   7.202  22.236   2.355 -0.3382 -0.0445 -0.0348
    1W        W64989  21.693   0.478   8.219 -0.1675 -0.1120 -0.1323
    1W        W64990  22.253  12.538   1.144 -0.2710 -0.1567 -0.0168
    1W        W64991  11.868   1.838   8.915  0.1055  0.0042  0.0528
    1W        W64992   9.243  28.550   0.259 -0.0054 -0.0353  0.0760
    1W        W64993   8.784  13.509   7.044 -0.2130  0.1777 -0.4134
    1W        W64994   1.396  23.556   0.322 -0.2144  0.0123  0.0475
    1W        W64995  29.463  27.754   8.146 -0.0343 -0.2934  0.0271
    1W        W64996   2.319  17.317   8.785 -0.1845  0.2626  0.0769
    1W        W64997  19.234   5.540   9.357 -0.0613 -0.1520  0.1362
    1W        W64998  25.648   8.628   1.530 -0.3321  0.1695  0.0608
    1W        W64999   7.364  23.181   0.816  0.1724 -0.1417 -0.0239
    1W        W65000  18.387  17.642   8.499 -0.1225  0.2057  0.0751
    1W        W65001  10.237   0.852   8.135 -0.4446 -0.2809  0.2925
    1W        W65002  28.107  19.953   8.626 -0.1665 -0.1549  0.0593
    1W        W65003  21.336   2.464   2.961 -0.1442  0.0571  0.2125
    1W        W65004  28.120  26.192   8.927  0.0343  0.2768 -0.0366
    1W        W65005  23.047  25.288   1.418 -0.0837 -0.1224 -0.0932
    1W        W65006  13.351  17.733   8.850 -0.2257 -0.1657  0.4912
    1W        W65007   7.641  10.067   1.178 -0.2129 -0.1439  0.3270
    1W        W65008  18.527  20.563   7.951  0.0803  0.0630 -0.0664
    1W        W65009  24.881   2.668   8.544  0.2759 -0.0128  0.1794
    1W        W65010  22.319  29.142   1.418  0.0762 -0.0581 -0.3147
    1W        W65011  14.949   2.485   7.964 -0.3233 -0.3628  0.3353
    1W        W65012  24.997  23.441   0.920  0.2049  0.0032  0.0314
    1W        W65013  10.899  28.295   8.347 -0.3772  0.1276  0.0301
    1W        W65014  22.045   9.586   9.048  0.0735 -0.1103 -0.0079
    1W        W65015  11.267   7.167   9.225  0.1310 -0.2233  0.2058
    1W        W65016  24.185  13.197   8.665  0.2505 -0.0234 -0.0404
    1W        W65017  27.952  15.013   0.591  0.1194 -0.2456 -0.0011
    1W        W65018  25.984  30.129   9.378 -0.0782 -0.3960  0.0789
    1W        W65019  19.414  22.607   1.243 -0.3316  0.3911  0.2082
    1W        W65020   3.193  22.322   1.124 -0.1965  0.0566  0.1161
    1W        W65021  24.068   5.221   9.049  0.1050  0.0481 -0.0049
    1W        W65022  12.939  17.028   9.173 -0.0987 -0.0492  0.1770
    1W        W65023  20.327  13.618   0.773 -0.2274  0.1784 -0.1064
    1W        W65024  18.110   4.536   0.679 -0.0410  0.1644 -0.2981
    1W        W65025  11.513  11.550   2.789  0.1300  0.0280  0.2803
    1W        W65026  25.771  21.027   0.701  0.1646 -0.1396  0.0342
    1W        W65027  29.919  24.784   6.343 -0.0751  0.1492  0.0191
    1W        W65028  26.908  14.543   6.741 -0.1765  0.0337 -0.0354
    1W        W65029  17.087  27.923   7.572  0.0097  0.0051  0.2958
    1W        W65030   3.095   9.457   8.110 -0.0692  0.0635  0.3667
    1W        W65031   5.220   9.104   2.227  0.0197 -0.2022 -0.1650
    1W        W65032  15.500  19.677   8.143  0.0193  0.0827 -0.0605
    1W        W65033  24.242  21.626   0.839 -0.2206  0.3249 -0.0759
    1W        W65034   2.206   4.537   0.446  0.1221 -0.2921 -0.3743
    1W        W65035  14.063  20.505   2.272  0.0055 -0.0197 -0.1069
    1W        W65036   7.412  15.834   7.649 -0.1435 -0.0654 -0.1881
    1W        W65037  23.384  18.926   6.785 -0.2021  0.1440 -0.0741
    1W        W65038  16.038  24.681   2.854 -0.0815 -0.0924 -0.0550
    1W        W65039  20.924  21.686   7.429 -0.2237 -0.0487  0.2439
    1W        W65040   3.133   3.075   7.897  0.1253  0.1719 -0.2223
    1W        W65041  15.654  10.905   9.173  0.2876  0.1469 -0.1593
    1W        W65042  12.234  17.713   0.558  0.2427 -0.4721  0.4375
    1W        W65043  22.444  24.197   8.415 -0.1459  0.0411 -0.1487
    1W        W65044  12.641  20.383   9.013  0.1171 -0.0706  0.3050
    1W        W65045  11.216  22.690   1.990  0.1152 -0.0536 -0.0581
    1W        W65046   2.574  29.506   3.790 -0.2266 -0.0002  0.3760
    1W        W65047   3.038  15.141   8.869  0.2689 -0.1908  0.2260
    1W        W65048  29.812  13.115   6.998 -0.0827  0.0355 -0.3524
    1W        W65049   2.781   6.926   7.832 -0.1678  0.1038 -0.0935
    1W        W65050  25.124  28.832   0.214  0.2551  0.2396 -0.1746
    1W        W65051  10.720  26.732   8.347  0.4782  0.2296  0.0589
    1W        W65052  22.289  14.608   7.212 -0.0837 -0.1640 -0.2410
    1W        W65053  20.366   9.452   2.141 -0.1020 -0.0845 -0.2753
    1W        W65054  12.499  13.450   8.096  0.2410 -0.2219 -0.1054
    1W        W65055   3.361  21.289   6.336 -0.0842  0.1828  0.0550
    1W        W65056  25.669   1.835   8.598  0.0652  0.3700  0.0177
    1W        W65057   7.808  26.690   7.552  0.0227 -0.0787  0.0836
    1W        W65058  26.796  21.555   8.997  0.2468 -0.0769 -0.0466
    1W        W65059  15.173  28.665   8.675 -0.0908 -0.0860 -0.2542
    1W        W65060   7.760  27.803   1.956 -0.0811  0.0850  0.0407
    1W        W65061  21.306   4.271   0.540 -0.2342 -0.0407  0.2696
    1W        W65062  28.773  27.144   8.485  0.4133  0.0496  0.1370
    1W        W65063  18.947  19.647   8.532  0.0067  0.1017 -0.1286
    1W        W65064  11.134  21.224   1.236  0.0681  0.0713  0.2383
    1W        W65065   6.386  21.761   7.201  0.1891  0.0631  0.0029
    1W        W65066  15.935  27.301   7.234 -0.1055  0.0191  0.1318
    1W        W65067  15.896   9.919   7.604  0.3822  0.2715  0.1906
    1W        W65068  11.898  23.183   0.813  0.4328 -0.0800  0.1719
    1W        W65069  24.988   9.980   6.040  0.0511 -0.1185  0.0315
    1W        W65070   0.177  20.554   1.720 -0.1030  0.2960 -0.2385
    1W        W65071   7.950  14.401   7.535  0.0513 -0.2945  0.1509
    1W        W65072   5.889   9.753   1.428  0.0287  0.0408 -0.0002
    1W        W65073  19.345  15.998   1.766  0.2879 -0.0453  0.1868
    1W        W65074  17.160  22.076   1.047  0.2232  0.0165 -0.2320
    1W        W65075   0.842  17.806   6.666 -0.2705  0.1513  0.3382
    1W        W65076  10.752  10.803   1.422 -0.1985 -0.0286 -0.3364
    1W        W65077  22.264  30.133   0.293  0.0529 -0.1878 -0.1042
    1W        W65078   5.260  24.324   1.808  0.4873 -0.1747 -0.0590
    1W        W65079  17.847  15.233   0.182  0.1063  0.1123  0.2410
    1W        W65080  22.439  12.099   1.077 -0.1300  0.1320  0.0540
    1W        W65081  22.107  19.413   6.782  0.2675  0.2146  0.1848
    1W        W65082  28.265   0.885   0.772 -0.3382 -0.1518 -0.3411
    1W        W65083  14.497  24.678   3.227 -0.2442  0.0665  0.1154
    1W        W65084   2.961  13.582   7.397  0.1509  0.3112  0.3640
    1W        W65085  27.706  26.591   7.140 -0.2666  0.0580 -0.0805
    1W        W65086  20.384  24.393   8.832  0.2173  0.0480  0.1684
    1W        W65087  15.997   0.417   7.809 -0.1748  0.0689 -0.3052
    1W        W65088  27.469  11.330   9.195  0.1719  0.0600 -0.0598
    1W        W65089  24.042  19.886   7.025  0.1911  0.5030 -0.2038
    1W        W65090  29.401   0.591   7.748 -0.1386 -0.1885  0.0588
    1W        W65091   5.032  15.789   6.267 -0.0041 -0.1812 -0.1041
    1W        W65092  23.335   9.864   8.039  0.2306 -0.1262  0.1168
    1W        W65093  20.630  16.214   0.302  0.0665 -0.1633 -0.2859
    1W        W65094   2.849  28.449   2.441  0.2039 -0.0755 -0.1393
    1W        W65095  10.073  15.425   9.261  0.2149  0.1361  0.2282
    1W        W65096   2.021  14.743   6.708 -0.1022 -0.3592  0.0444
    1W        W65097  24.233  20.051   8.345 -0.2179 -0.0081 -0.0903
    1W        W65098  25.364  15.173   0.463  0.0458 -0.1268 -0.2451
    1W        W65099  25.226  18.719   8.147  0.2519 -0.2912  0.0732
    1W        W65100  12.199  19.010   1.643 -0.1478  0.1116  0.0697
    1W        W65101   1.642  20.841   6.288  0.1522  0.0365 -0.0419
    1W        W65102  14.728   1.597   7.870 -0.0106  0.0734  0.1969
    1W        W65103   6.546  29.792   0.681  0.5092  0.2943 -0.1217
    1W        W65104  23.134  21.073   8.873 -0.0099 -0.1704  0.2946
    1W        W65105  17.337  21.762   9.012  0.0747 -0.0824  0.3626
    1W        W65106  26.124   2.312   0.997 -0.0913 -0.3771  0.1014
    1W        W65107   9.741  22.101   8.895 -0.0595  0.0768  0.2954
    1W        W65108  23.498  26.832   8.671 -0.1865  0.1671 -0.0142
    1W        W65109  29.662  14.895   8.037 -0.2528  0.1949  0.1976
    1W        W65110  23.490   2.612   2.294  0.3701  0.1016  0.3760
    1W        W65111  14.684  30.121   7.651 -0.0870  0.1728 -0.1017
    1W        W65112  29.036  21.494   1.170  0.0906 -0.2534  0.2024
    1W        W65113  22.074  25.969   0.018 -0.0298  0.1089 -0.0638
    1W        W65114  12.751   4.476   2.354 -0.0593  0.4663 -0.0041
    1W        W65115  25.855  28.751   0.664 -0.1506 -0.0233 -0.4017
    1W        W65116   6.361   0.566   1.085 -0.3250 -0.1313 -0.1563
    1W        W65117  14.337   4.106   7.813  0.1837  0.0433 -0.2194
    1W        W65118  27.593  25.202   0.961  0.0370 -0.0404  0.0274
    1W        W65119  11.298  10.702   2.313  0.2397 -0.0136 -0.0217
    1W        W65120   6.401   9.696   0.361  0.4625  0.0972  0.0299
    1W        W65121   2.126   2.483   0.607 -0.1886  0.2018  0.1863
    1W        W65122  11.132  23.646   0.959  0.1279 -0.2126 -0.1699
    1W        W65123  11.919  23.628   0.316  0.0074  0.1591 -0.2258
    1W        W65124  13.798  15.122   6.936  0.2404 -0.0320 -0.1420
    1W        W65125  18.827   7.357   2.081  0.3133  0.0473  0.1506
    1W        W65126   6.379  26.629   7.974  0.1297 -0.0329 -0.1300
    1W        W65127  14.888  23.818   2.717  0.0615  0.3728  0.1117
    1W        W65128   5.802  12.051   3.352  0.2656 -0.0075  0.0826
    1W        W65129   5.245  17.800   7.128  0.1113  0.0318 -0.0012
    1W        W65130  19.158  17.185   8.110 -0.1668  0.5968 -0.1000
    1W        W65131  15.012  12.618   9.168 -0.0395 -0.3285 -0.1563
    1W        W65132   3.504   2.181   0.662  0.0838 -0.2442 -0.1370
    1W        W65133   7.579  27.325   8.462  0.3135  0.0355  0.0526
    1W        W65134  19.784   5.267   0.583  0.1082  0.0491 -0.1991
    1W        W65135  27.873   6.618   2.936  0.0725  0.2740  0.2506
    1W        W65136  11.716  12.290   8.590  0.0397  0.1207  0.0148
    1W        W65137   4.391  19.204   7.229 -0.0281  0.1293  0.1833
    1W        W65138  13.487   2.407   8.848 -0.2231 -0.1127 -0.2022
    1W        W65139  28.523  18.780   6.692  0.1940  0.0197 -0.0704
    1W        W65140   6.847  21.836   6.904 -0.1021  0.0125  0.1208
    1W        W65141  28.150   2.530   0.138  0.0141 -0.0867  0.2159
    1W        W65142  20.994  12.293   7.792  0.0993 -0.1742  0.1694
    1W        W65143   0.888  29.543   3.358  0.0291 -0.0489  0.1427
    1W        W65144   1.331   0.293   0.838 -0.1612  0.2245 -0.1650
    1W        W65145  25.491  10.511   8.497 -0.1380 -0.1642  0.0039
    1W        W65146  29.126   9.406   1.628 -0.0976 -0.2708  0.4282
    1W        W65147  15.691  11.250   0.502  0.0315  0.1023 -0.1174
    1W        W65148   4.204  13.955   8.107 -0.1507  0.2279 -0.0958
    1W        W65149   1.367   0.674   2.992  0.1275  0.1608  0.2756
    1W        W65150   0.836  24.659   8.420 -0.0480 -0.0100 -0.0020
    1W        W65151  21.257  29.523   8.520 -0.0112 -0.3054  0.2131
    1W        W65152  16.759  18.653   7.226 -0.2014  0.2012 -0.1170
    1W        W65153  29.022  16.635   8.204 -0.2539  0.4720 -0.2601
    1W        W65154  13.249   2.393   3.122 -0.2113 -0.0960  0.1317
    1W        W65155  22.038  20.495   0.224 -0.0167  0.2185 -0.1151
    1W        W65156  30.104   7.207   8.817  0.0345  0.1049 -0.0060
    1W        W65157   1.006  11.308   6.403  0.2191 -0.1153 -0.3010
    1W        W65158   5.454  29.780   1.358  0.0444 -0.0147 -0.2515
    1W        W65159  22.541  27.475   2.185  0.1358  0.4395  0.0663
    1W        W65160  16.078   7.849   8.903 -0.1739  0.1022 -0.3647
    1W        W65161  11.910  18.663   2.406 -0.4525 -0.0443  0.2421
    1W        W65162  14.115   4.155   7.296 -0.1005  0.0107 -0.0834
    1W        W65163  10.819  15.031   1.213  0.0148 -0.0932 -0.1708
    1W        W65164   5.822   7.374   3.086  0.0464 -0.0094 -0.1607
    1W        W65165  13.448   8.183   0.333 -0.0268 -0.2697 -0.1220
    1W        W65166  29.858  15.462   7.527 -0.3444  0.3560  0.0518
    1W        W65167  15.635  29.237   1.542  0.1317  0.2906 -0.1087
    1W        W65168   6.617   5.528   0.797  0.2561  0.1816  0.2101
    1W        W65169  16.688  22.104   1.105 -0.0915  0.0246  0.1070
    1W        W65170  22.069  23.481   2.944 -0.2395 -0.0146 -0.0133
    1W        W65171  27.443  16.400   7.775  0.1522 -0.1914 -0.0550
    1W        W65172  29.604  28.997   7.163 -0.1250 -0.0012 -0.0991
    1W        W65173   4.303  20.536   1.042  0.1799 -0.2516 -0.1313
    1W        W65174  19.303  27.630   2.032  0.0617 -0.1640 -0.2297
    1W        W65175  28.557   2.973   7.904  0.0186 -0.0539  0.2910
    1W        W65176  25.475   7.118   1.200 -0.0232 -0.0373 -0.2269
    1W        W65177  25.371  24.203   1.482  0.1528 -0.0663  0.2827
    1W        W65178   9.026   5.727   1.831  0.1492 -0.0814 -0.0215
    1W        W65179  13.612  17.228   7.798  0.2641 -0.1764 -0.2972
    1W        W65180  10.278  19.864   1.153 -0.1311 -0.0074 -0.0249
    1W        W65181   1.898  23.436   7.494  0.3588  0.2884  0.1619
    1W        W65182   5.325   5.651   7.597  0.0086 -0.0888  0.1691
    1W        W65183  28.707   3.350   1.109 -0.0556 -0.1517 -0.1393
    1W        W65184   6.057   1.808   1.108 -0.1547 -0.1128  0.6225
    1W        W65185  16.292  15.873   9.317 -0.2144 -0.0001  0.0805
    1W        W65186  21.088  26.048   7.407 -0.3111 -0.0486 -0.2128
    1W        W65187   1.516   2.463   2.005  0.1830 -0.0332 -0.1307
    1W        W65188  19.985  19.811   8.601  0.0296  0.1417 -0.0563
    1W        W65189   7.588   8.453   0.615  0.0494 -0.1880 -0.0293
    1W        W65190  29.231  15.752   1.978 -0.0526 -0.1101 -0.0384
    1W        W65191   3.412  25.924   9.148 -0.0693  0.0212 -0.1339
    1W        W65192  25.435   0.587   2.628  0.0056 -0.1903  0.0588
    1W        W65193  11.309  25.485   3.078  0.1760  0.5765 -0.0423
    1W        W65194  30.069  23.296   7.189 -0.2433 -0.2331  0.0580
    1W        W65195  13.471   6.540   2.015  0.0234 -0.0580  0.0678
    1W        W65196   6.192  14.856   7.219 -0.0565  0.0654 -0.0201
    1W        W65197   4.184   0.057   8.956 -0.2137 -0.0665 -0.0722
    1W        W65198  14.935   0.498   2.400  0.3185  0.1979  0.1213
    1W        W65199   7.976   3.011   3.237 -0.1077  0.0363 -0.1100
    1W        W65200   4.031   4.297   8.838 -0.1989 -0.1102 -0.1301
    1W        W65201  27.145  11.776   8.063 -0.0886  0.0746 -0.2043
    1W        W65202  12.059  18.959   0.092  0.0080 -0.1573  0.2711
    1W        W65203   8.833   7.996   1.984 -0.2500  0.2549  0.1555
    1W        W65204   2.891  14.337   0.157 -0.1521 -0.1016  0.2755
    1W        W65205  12.454  20.695   7.055  0.1589  0.0132 -0.4806
    1W        W65206  29.908   3.529   2.463 -0.2586  0.0429  0.4125
    1W        W65207  18.175   0.000   7.982  0.0424 -0.1803 -0.0331
    1W        W65208  28.582  24.679   6.183 -0.3483 -0.2197 -0.2536
    1W        W65209  11.746   7.863   0.302  0.0708 -0.1835 -0.2393
    1W        W65210  22.390   6.023   7.475  0.1702  0.1136  0.3612
    1W        W65211  28.516  19.610   1.967  0.0446  0.0337  0.3010
    1W        W65212  24.756  23.810   0.481 -0.0193  0.0451 -0.2149
    1W        W65213  20.429  25.288   7.316  0.0209 -0.2175 -0.1095
    1W        W65214  22.619  13.520   6.028 -0.1900 -0.1705  0.1796
    1W        W65215  19.308   5.404   2.693  0.3790  0.0881 -0.2862
    1W        W65216  26.604  15.904   1.424 -0.1719  0.1059  0.0704
    1W        W65217  28.236  19.203   7.409  0.0556  0.0785 -0.2790
    1W        W65218  23.618  10.593   1.388 -0.0514 -0.1820  0.0755
    1W        W65219  25.914  17.342   9.196 -0.1732  0.3309 -0.0540
    1W        W65220   1.864  19.955   9.084 -0.2606 -0.1470  0.0092
    1W        W65221  12.806   1.938   0.478  0.1373 -0.3128 -0.0184
    1W        W65222  23.718  22.737   1.394 -0.1869 -0.0082  0.3554
    1W        W65223   0.049  16.256   6.437  0.1350  0.1715 -0.0197
    1W        W65224  11.698   1.640   2.171 -0.1703 -0.1680 -0.1345
    1W        W65225  24.733  17.289   8.632  0.1971  0.0367 -0.2263
    1W        W65226  18.410  12.241   8.161 -0.0970 -0.0657  0.2084
    1W        W65227  27.318  14.664   5.816 -0.1327 -0.1888  0.2410
    1W        W65228  23.996  29.958   2.724 -0.1815  0.2266  0.3413
    1W        W65229  14.179  18.511   7.606 -0.0325  0.0873 -0.1957
    1W        W65230   2.682   4.237   2.430 -0.2411  0.3236 -0.2798
    1W        W65231   0.383  24.804   8.504  0.0072 -0.3048 -0.1480
    1W        W65232  17.286   1.050   0.477 -0.1395 -0.1279  0.1054
    1W        W65233  17.349  14.654   7.323 -0.0184  0.2738  0.0297
    1W        W65234   4.319  10.544   0.714 -0.0441  0.3026 -0.2618
    1W        W65235  10.616   0.812   1.553 -0.0479 -0.0723 -0.1912
    1W        W65236  27.651  10.724   8.919 -0.1856  0.0791  0.2352
    1W        W65237  16.141  29.101   0.953  0.0036  0.1730  0.1603
    1W        W65238   8.941  11.149   8.183 -0.1272  0.2779 -0.0207
    1W        W65239   6.843  11.257   8.686 -0.1113 -0.1802 -0.0238
    1W        W65240  20.289   2.375   8.944  0.2248 -0.0338  0.1645
    1W        W65241   3.808  12.656   6.827 -0.0849  0.0824 -0.3017
    1W        W65242  11.937  21.860   2.060  0.3465  0.5589  0.0691
    1W        W65243  24.179   9.062   0.788 -0.0251  0.2040 -0.0576
    1W        W65244   1.732   3.576   6.861  0.2215 -0.0257 -0.1699
    1W        W65245   7.911  11.968   1.690  0.1935 -0.2189 -0.1929
    1W        W65246  26.594  16.161   0.711 -0.0631 -0.1164  0.1192
    1W        W65247   9.503   6.996   8.050  0.1310 -0.2178  0.1603
    1W        W65248  11.485  24.015   7.392 -0.1726  0.1371  0.2191
    1W        W65249   4.588   6.233   8.748  0.1635 -0.1311 -0.1576
    1W        W65250  11.884  19.781   0.231  0.0235  0.1362  0.1612
    1W        W65251  22.352  13.999   1.530  0.0414  0.0516  0.0810
    1W        W65252   9.952   5.691   0.842 -0.2455  0.0491  0.0196
    1W        W65253  15.255  10.632   8.103 -0.0578  0.0471  0.0761
    1W        W65254   3.108   5.660   9.112  0.3333 -0.0572 -0.1567
    1W        W65255   1.023   3.887   0.772  0.1101 -0.2666 -0.4195
    1W        W65256  22.406  11.974   7.760 -0.2153  0.1336 -0.0466
    1W        W65257  24.184  13.711   8.622 -0.1362 -0.1630 -0.1912
    1W        W65258   3.586   7.856   7.353 -0.0078 -0.1866 -0.0875
    1W        W65259  24.180  28.607   0.269 -0.0132 -0.0754 -0.0276
    1W        W65260  19.636   9.546   8.334  0.0609 -0.0117 -0.4054
    1W        W65261  19.539   0.370   1.362 -0.0480  0.1420 -0.2224
    1W        W65262  18.174   8.025   7.910  0.0365 -0.0871 -0.0089
    1W        W65263  17.905  20.399   7.249 -0.0374 -0.1615  0.0287
    1W        W65264  25.382  11.478   6.264 -0.1852  0.2171 -0.3330
    1W        W65265  27.475   5.954   7.731 -0.0646 -0.0426  0.1010
    1W        W65266   1.879  10.610   8.083  0.4459  0.1898  0.0346
    1W        W65267  27.995   8.478   5.694 -0.0886  0.1905  0.0567
    1W        W65268   0.815  12.112   9.089  0.4677  0.0005 -0.1483
    1W        W65269   9.781  27.693   1.380  0.0797  0.0123 -0.1845
    1W        W65270  10.372  22.997   1.327  0.1066  0.0222 -0.1219
    1W        W65271  18.542   5.711   9.228  0.1499 -0.0463 -0.0257
    1W        W65272   6.756  24.665   1.179 -0.0327 -0.0085 -0.0270
    1W        W65273   4.826  16.510   1.006  0.2736  0.0114 -0.2017
    1W        W65274  14.502  25.270   1.146 -0.1553  0.3124  0.1166
    1W        W65275  14.245  22.717   8.666  0.0649  0.0250  0.1930
    1W        W65276  14.430  14.589   1.602  0.3344  0.3029 -0.2181
    1W        W65277   2.579  19.374   8.168 -0.1252 -0.1872  0.1891
    1W        W65278  11.371  20.890   8.547 -0.1859  0.0373 -0.0571
    1W        W65279  25.926  24.661   8.507 -0.2218 -0.2364 -0.1368
    1W        W65280  13.177  26.842   1.700  0.0411  0.1675  0.2509
    1W        W65281   9.163  15.316   7.130  0.2257 -0.1903  0.0798
    1W        W65282   7.305  24.453   9.201  0.1492 -0.2634  0.2209
    1W        W65283  20.903  19.504   1.953  0.1734 -0.1169  0.1293
    1W        W65284   2.219  21.983   0.537 -0.2959  0.2964 -0.0310
    1W        W65285  22.079  22.570   7.196  0.1696  0.3406 -0.4897
    1W        W65286  14.057  13.496   8.674  0.1641 -0.0664  0.1422
    1W        W65287  26.630  28.883   6.886  0.0023 -0.0308 -0.2380
    1W        W65288   9.220  28.761   2.781  0.3360 -0.3403 -0.3513
    1W        W65289   2.566   9.860   7.028  0.1968  0.1005  0.0385
    1W        W65290  23.019  14.639   7.136 -0.1392 -0.2509  0.0653
    1W        W65291  12.089  22.688   1.573  0.0612  0.0359 -0.0206
    1W        W65292  21.456  19.722   8.991  0.0014 -0.0425 -0.0240
    1W        W65293   8.941   7.270   1.528 -0.0459 -0.1796 -0.1287
    1W        W65294  21.765  15.524   6.434  0.1781 -0.0219 -0.0311
    1W        W65295   9.588   8.949   7.309  0.2021 -0.0666  0.1254
    1W        W65296  17.399   3.831   0.010 -0.1127  0.3906 -0.1845
    1W        W65297   1.529  29.326   1.176  0.2501  0.0010 -0.2491
    1W        W65298  28.240  28.333   8.176  0.0818  0.0541 -0.1113
    1W        W65299  20.273  22.064   1.533  0.0503 -0.0137  0.0928
    1W        W65300  19.737   2.992   0.537  0.0701  0.1887 -0.1302
    1W        W65301   4.682   1.058   3.082 -0.0570 -0.1680 -0.0019
    1W        W65302  29.629   5.021   1.829  0.0189 -0.1014 -0.3264
    1W        W65303  25.650   8.031   7.756 -0.0146 -0.0825  0.1800
    1W        W65304   9.620  12.018   8.797 -0.0545 -0.1102 -0.0117
    1W        W65305  10.517  17.655   1.479  0.2837 -0.2897  0.2941
    1W        W65306  16.011  23.227   6.862 -0.0025  0.0155 -0.3209
    1W        W65307   1.707  28.925   6.858  0.3838 -0.3709  0.1102
    1W        W65308  17.344   1.807   7.758  0.0892 -0.2669  0.1129
    1W        W65309  15.168  13.634   8.863  0.0389  0.0256  0.1521
    1W        W65310  17.852  16.504   0.414  0.0404  0.1377  0.2983
    1W        W65311   2.810  12.138   1.794 -0.0927  0.1708  0.2109
    1W        W65312  18.223   0.268   1.463 -0.0429  0.2454 -0.0962
    1W        W65313  14.298  17.221   8.887 -0.0611  0.0406 -0.1706
    1W        W65314  24.617  24.569   2.270 -0.3972 -0.1094 -0.0884
    1W        W65315   1.012  17.743   8.670  0.0903 -0.1860  0.2413
    1W        W65316  11.777  22.879   2.061 -0.0881 -0.0477  0.0044
    1W        W65317  13.708  27.944   8.698 -0.0146  0.1000  0.0131
    1W        W65318  15.048   7.188   2.902  0.1345  0.0701 -0.1033
    1W        W65319  22.298  26.981   1.330 -0.5599 -0.4153 -0.1782
    1W        W65320  11.414  16.735   8.069  0.1376 -0.1627  0.3366
    1W        W65321  16.650   5.496   7.437  0.0567 -0.0821 -0.1838
    1W        W65322  23.862  16.721   6.757  0.0242 -0.0684 -0.0615
    1W        W65323   1.649   8.822   8.963 -0.2108  0.1380 -0.3169
    1W        W65324   3.480  14.821   7.464  0.0013  0.0764  0.0900
    1W        W65325  13.594   3.870   2.337  0.1670 -0.0187  0.4277
    1W        W65326  14.729  11.370   7.921  0.0928  0.0679  0.0508
    1W        W65327  11.157   6.736   1.607  0.1397  0.0621  0.1098
    1W        W65328  24.546  16.273   7.318 -0.3461 -0.0239 -0.2734
    1W        W65329  19.066  29.474   8.144  0.1344 -0.0611 -0.0346
    1W        W65330  25.515  19.223   8.727  0.0837 -0.2098 -0.1001
    1W        W65331   8.886  14.123   7.969 -0.0375  0.1892 -0.0233
    1W        W65332   4.057  10.801   7.876 -0.3676 -0.0319 -0.3076
    1W        W65333  27.893  15.246   9.187  0.1497 -0.0805  0.1205
    1W        W65334  12.942   5.202   8.851 -0.2510 -0.1701 -0.0196
    1W        W65335   5.294  30.099   2.364 -0.3288  0.1847 -0.1410
    1W        W65336   1.313  23.121   0.796 -0.0658  0.1770 -0.2172
    1W        W65337   9.272  19.342   1.782  0.0852 -0.1722 -0.1838
    1W        W65338  20.212   2.073   2.078 -0.0977 -0.0505 -0.0935
    1W        W65339  15.849  20.728   1.751 -0.2387 -0.1603  0.5209
    1W        W65340  24.375  21.309   6.620 -0.1429 -0.3248 -0.2856
    1W        W65341  20.364   6.465   1.143  0.0890 -0.1912 -0.0151
    1W        W65342  10.484  25.097   7.258  0.1661 -0.0405 -0.3581
    1W        W65343  13.302  29.772   7.976  0.1403 -0.3211 -0.0707
    1W        W65344  20.605  15.248   1.216 -0.2123  0.1226  0.0551
    1W        W65345   1.978   5.183   7.850  0.1654  0.2115  0.0951
    1W        W65346   4.509  11.787   0.903 -0.1432  0.1379  0.3891
    1W        W65347  29.530  22.136   1.992  0.0725  0.1644  0.1480
    1W        W65348  21.318   8.778   0.696 -0.1447  0.0486  0.4298
    1W        W65349  18.370  10.833   7.844  0.1943  0.1072 -0.0460
    1W        W65350  28.183   9.133   8.518 -0.1248  0.0470 -0.2140
    1W        W65351  23.245   0.535   2.936  0.0860 -0.0153  0.3243
    1W        W65352   9.408  23.713   1.563  0.0940 -0.0723 -0.2659
    1W        W65353  15.955   1.614   1.147 -0.1776 -0.1706  0.0388
    1W        W65354  18.535  27.140   9.006  0.0644  0.2085  0.0437
    1W        W65355  20.116  20.555   9.279  0.1001  0.0117  0.1403
    1W        W65356  12.293  20.852   1.723  0.2182 -0.1929 -0.0161
    1W        W65357  13.839  15.034   8.017 -0.0884  0.1429  0.2224
    1W        W65358  12.582  24.276   7.872 -0.0841 -0.0908  0.1351
    1W        W65359  11.054   2.382   0.863  0.1437  0.1442 -0.1635
    1W        W65360  18.213   2.912   1.510 -0.1579 -0.1042 -0.0990
    1W        W65361  18.298  12.055   7.025  0.2529  0.0212 -0.0087
    1W        W65362   0.159  23.548   6.140 -0.2915 -0.1412 -0.1667
    1W        W65363  23.746   9.691   8.307  0.0726 -0.0066  0.0448
    1W        W65364  19.511  25.601   2.332 -0.0527  0.1708  0.2123
    1W        W65365   4.182  24.574   0.841  0.2533 -0.2218 -0.0058
    1W        W65366  13.812   7.450   8.975  0.1363 -0.0510 -0.0636
    1W        W65367  27.098  10.412   0.732 -0.0494 -0.2136 -0.1095
    1W        W65368   4.698   8.298   8.067  0.0990  0.1775  0.1853
    1W        W65369  24.518  27.065   2.685  0.1220  0.1728 -0.1817
    1W        W65370   1.756  11.799   6.904  0.2097 -0.0918 -0.3280
    1W        W65371   5.544  20.508   5.895  0.2265 -0.0554  0.2764
    1W        W65372  27.906  26.835   6.691 -0.3333  0.0007  0.2002
    1W        W65373   7.905  17.713   8.254  0.0106 -0.1844  0.2250
    1W        W65374   7.526   5.174   1.741  0.0480 -0.0563 -0.0530
    1W        W65375   5.000   1.700   8.008 -0.0752  0.0358 -0.2152
    1W        W65376  26.648  15.872   4.861  0.2131 -0.0036 -0.0320
    1W        W65377  26.895  13.906   7.422 -0.4384  0.1288 -0.0151
    1W        W65378  28.694  21.261   9.185 -0.1081  0.0781  0.1749
    1W        W65379   2.027  18.208   7.213 -0.0761 -0.1193 -0.2606
    1W        W65380   9.730   1.247   0.677  0.1248  0.0368  0.0975
    1W        W65381   4.144  27.519   7.752  0.1515  0.0734  0.1691
    1W        W65382   5.237  13.475   2.548 -0.0077 -0.0160  0.0228
    1W        W65383   8.691  20.971   8.702  0.0801 -0.0953 -0.1103
    1W        W65384   8.850   0.877   6.850 -0.1279  0.1703 -0.0184
    1W        W65385   8.697  24.392   1.037  0.3673  0.1118 -0.2215
    1W        W65386  21.275  23.735   0.504 -0.0182  0.1031 -0.0960
    1W        W65387  27.486  19.369   8.227  0.1300  0.0963 -0.0679
    1W        W65388   1.878  16.927   7.191  0.2400  0.0859  0.0708
    1W        W65389  16.095   5.377   3.023  0.1645 -0.0907  0.0131
    1W        W65390   1.885   7.020   8.307  0.0291 -0.1826 -0.1309
    1W        W65391  16.572   0.610   7.711 -0.0770  0.0577  0.0774
    1W        W65392  20.890   3.002   2.535 -0.4890  0.1353  0.1378
    1W        W65393  29.799  20.097   7.686 -0.1514  0.0684 -0.0320
    1W        W65394  24.358   0.450   3.337  0.1896 -0.1149 -0.0347
    1W        W65395  12.922   5.403   1.089 -0.1321 -0.0799  0.3317
    1W        W65396   4.446   2.565   2.838 -0.1923 -0.0484  0.1274
    1W        W65397  15.435  14.479   1.922 -0.1916 -0.2316 -0.0815
    1W        W65398   5.540   8.664   0.756  0.0970  0.1646  0.0515
    1W        W65399  15.271  13.962   1.751 -0.1423  0.1857 -0.3170
    1W        W65400  27.174   1.877   1.755 -0.1250 -0.2117  0.1276
    1W        W65401  26.054  23.718   8.458 -0.0398  0.2147 -0.1850
    1W        W65402   5.048   1.946   1.534  0.1121  0.3267 -0.3814
    1W        W65403  22.628  15.698   8.025 -0.1437 -0.3228 -0.1990
    1W        W65404   9.681   0.421   2.710 -0.0976  0.0987  0.1803
    1W        W65405   8.969   7.960   2.434 -0.3266 -0.2025 -0.4255
    1W        W65406   4.478  22.332   5.050 -0.0388  0.1436 -0.0780
    1W        W65407  26.179   7.947   0.212  0.3333  0.1431  0.2867
    1W        W65408  22.756  29.898   0.221 -0.0108 -0.1066  0.3186
    1W        W65409   4.138   4.732   2.872  0.0619 -0.2645 -0.0638
    1W        W65410  12.436  30.062   1.695  0.1616 -0.0590  0.4852
    1W        W65411  22.071   8.846   2.495 -0.0835 -0.1035  0.1143
    1W        W65412  27.940  11.560   1.471  0.1879  0.0386  0.2057
    1W        W65413  14.080   0.994   2.112 -0.0885  0.3312  0.1325
    1W        W65414   4.863   8.421   1.851 -0.2531  0.4870 -0.1759
    1W        W65415  10.855  18.341   8.163  0.1952  0.0527  0.3295
    1W        W65416   8.063   1.158   0.334 -0.1606 -0.1330  0.1397
    1W        W65417  17.391  20.307   8.682  0.2325 -0.0376 -0.0302
    1W        W65418   8.039  29.684   1.733 -0.2104 -0.1697 -0.4624
    1W        W65419  17.008   4.895   9.226 -0.0987  0.1902  0.0886
    1W        W65420   6.624  14.874   2.044 -0.0300 -0.1992 -0.2624
    1W        W65421  19.376   8.811   2.241 -0.3477  0.4944 -0.0393
    1W        W65422   9.765  13.743   7.748 -0.1494  0.1488  0.2491
    1W        W65423   4.623  19.496   0.902 -0.0715  0.0676  0.3884
    1W        W65424  24.001  28.227   7.742  0.0260  0.2592 -0.1409
    1W        W65425  12.129  17.840   8.029  0.2973 -0.0267 -0.1576
    1W        W65426  15.237  28.621   7.803  0.2277 -0.2677 -0.5528
    1W        W65427   0.440  12.319   8.031 -0.5416  0.0879 -0.1434
    1W        W65428   6.604  28.699   2.953 -0.0539  0.6091  0.2998
    1W        W65429  13.589  28.889   3.063 -0.0548  0.2329  0.1265
    1W        W65430  18.611  23.822   3.041  0.0616 -0.1989 -0.1739
    1W        W65431  16.615  25.640   8.841 -0.2007 -0.0527  0.0772
    1W        W65432   2.041  24.440   0.872 -0.3019  0.1158 -0.1408
    1W        W65433  17.825   0.137   7.602 -0.2120  0.2335 -0.1614
    1W        W65434   1.494   2.900   0.664  0.1070  0.2342 -0.1882
    1W        W65435  23.548  29.221   1.332 -0.2445 -0.0509  0.0065
    1W        W65436   8.005   1.059   2.505  0.0204  0.1253  0.1655
    1W        W65437  13.866  21.723   9.359  0.0511  0.1336  0.0906
    1W        W65438  28.971  17.536   8.284  0.0146  0.0462  0.3101
    1W        W65439   0.239   3.251   0.216 -0.2093 -0.0691  0.1445
    1W        W65440  20.324  11.338   1.943  0.0743  0.0793  0.0160
    1W        W65441   7.332   6.026   2.915  0.1170  0.0446  0.2634
    1W        W65442  24.048   9.726   1.626 -0.1302 -0.1522 -0.1419
    1W        W65443  13.995   1.738   0.733  0.1515 -0.3040  0.2572
    1W        W65444  15.844  29.729   7.264  0.1018  0.0687  0.2361
    1W        W65445  30.124  24.948   7.950  0.1541  0.1954  0.1429
    1W        W65446  17.917  18.982   7.738  0.0838  0.0400  0.0700
    1W        W65447  19.847  14.268   1.961 -0.1831 -0.1433 -0.0902
    1W        W65448   7.180   2.356   8.195 -0.1864 -0.2219 -0.0940
    1W        W65449   2.537   0.877   2.302  0.0060  0.4121  0.0231
    1W        W65450  24.564   6.905   7.721 -0.0410 -0.2606  0.0781
    1W        W65451   8.425   7.247   7.997  0.0291  0.0819  0.1147
    1W        W65452  17.037   1.526   0.972  0.3167  0.0684 -0.2021
    1W        W65453   8.988  15.612   7.968 -0.2040  0.0585  0.3076
    1W        W65454   0.670   7.336   0.893 -0.0162 -0.1272  0.2509
    1W        W65455   6.836  11.592   8.322 -0.3719 -0.0786 -0.0707
    1W        W65456   6.069  13.045   2.068 -0.3760  0.3833  0.0359
    1W        W65457  20.897   2.162   1.376 -0.0494  0.0501 -0.0799
    1W        W65458   7.402  13.391   0.688  0.0418  0.1622  0.0090
    1W        W65459   1.793   0.495   0.804 -0.1315  0.1507  0.2786
    1W        W65460  22.229   8.638   6.704 -0.0496  0.1293 -0.1491
    1W        W65461   5.471   0.265   8.532 -0.2365  0.0135  0.0546
    1W        W65462  27.563   8.537   1.372  0.2112  0.1689  0.1092
    1W        W65463  28.770  14.754   0.982  0.3677  0.1232 -0.0867
    1W        W65464   0.396   4.138   0.260 -0.2979 -0.0530  0.0337
    1W        W65465  19.899   7.375   0.814  0.0983 -0.0388  0.2941
    1W        W65466   9.225  18.424   6.928  0.0402 -0.1444  0.0821
    1W        W65467   6.715  12.845   8.627  0.0256  0.0862  0.0990
    1W        W65468   7.312  17.643   2.066 -0.0854 -0.1153 -0.0712
    1W        W65469   2.784   4.710   7.397  0.0485  0.1172 -0.0471
    1W        W65470   4.867   2.859   7.421  0.0750  0.1626 -0.1283
    1W        W65471  26.780  27.449   0.173  0.0457  0.0784 -0.3538
    1W        W65472  24.371   7.568   0.400  0.0799  0.0899 -0.0974
    1W        W65473  23.135  10.292   1.897  0.1954  0.0794 -0.2651
    1W        W65474   4.417   8.761   7.866  0.1920 -0.1840  0.0662
    1W        W65475  27.997  21.599   6.873 -0.2481 -0.1488  0.1991
    1W        W65476  22.058   3.679   0.058  0.1836  0.2165 -0.0080
    1W        W65477  18.925   5.473   1.256  0.2057  0.0791  0.1389
    1W        W65478   7.472  24.775   1.709 -0.0027  0.3130  0.0328
    1W        W65479   2.724  15.538   7.286 -0.0527 -0.1488 -0.2046
    1W        W65480   5.556  26.211   0.440  0.0800 -0.0578  0.0309
    1W        W65481   2.112   2.622   1.062  0.0374 -0.0821 -0.0939
    1W        W65482  15.507  15.624   7.235  0.0584  0.1564  0.3675
    1W        W65483   8.873  23.942   0.773  0.0143 -0.1707 -0.0097
    1W        W65484   3.610  20.342   6.937 -0.0674 -0.1158  0.1236
    1W        W65485  11.704  21.575   8.918 -0.3163 -0.0860  0.0086
    1W        W65486  29.020   2.197   2.224  0.3632  0.2741 -0.2438
    1W        W65487  15.294  19.872   7.411  0.0099  0.1353 -0.0077
    1W        W65488  17.630   8.476   2.251 -0.0119  0.0893  0.2456
    1W        W65489  13.124   0.085   0.632 -0.2689 -0.1515 -0.0764
    1W        W65490  27.499  26.463   0.266  0.0675  0.0026  0.3514
    1W        W65491  24.520  11.535   6.866 -0.0919  0.1953 -0.0396
    1W        W65492   5.615  21.311   2.284 -0.1093  0.0105 -0.0641
    1W        W65493  27.391  24.899   6.982  0.3917 -0.0402  0.2677
    1W        W65494  29.107  28.490   7.121  0.1267  0.0949 -0.2017
    1W        W65495   2.120  26.851   8.852  0.1978 -0.2010 -0.1540
    1W        W65496   0.771   9.683   7.977 -0.3196 -0.3062  0.0812
    1W        W65497   5.998  11.740   7.590 -0.0284  0.1807 -0.0377
    1W        W65498  14.061   2.864   7.639  0.1225 -0.0264  0.0545
    1W        W65499  20.308  13.234   7.942  0.1145 -0.1872 -0.1434
    1W        W65500   7.415  17.725   1.291  0.3513 -0.1676 -0.4521
    1W        W65501  27.753   6.724   8.665 -0.0324  0.2184 -0.1219
    1W        W65502  30.002  21.521   5.720  0.0482  0.0685 -0.0623
    1W        W65503  12.110  13.878   1.052 -0.0156  0.1229 -0.1116
    1W        W65504  20.428   5.348   2.987  0.0984  0.0151 -0.0243
    1W        W65505  30.121  26.635   8.932 -0.0524  0.1339  0.2449
    1W        W65506  21.055  13.466   1.495 -0.1086  0.0086 -0.0838
    1W        W65507  25.466  11.339   1.882 -0.0946  0.3742 -0.0880
    1W        W65508  21.592   3.717   2.358 -0.0172  0.0267  0.1573
    1W        W65509  25.867  11.156   2.223  0.1128  0.1446 -0.1582
    1W        W65510  20.016  17.189   1.149  0.0542 -0.0245  0.2077
    1W        W65511   3.736  21.749   4.809 -0.0070  0.0916 -0.1561
    1W        W65512  24.603  28.185   8.509  0.1173  0.1004  0.0719
    1W        W65513   0.019  22.097   1.464 -0.0286  0.1218  0.0407
    1W        W65514   7.983  13.274   8.096  0.0516 -0.2502  0.0879
    1W        W65515  24.952  20.679   1.849 -0.0294  0.3613  0.2275
    1W        W65516   5.348  24.037   6.074 -0.0883 -0.1011 -0.3400
    1W        W65517   1.349  10.961   1.468 -0.4630 -0.2803 -0.0722
    1W        W65518  29.398   5.986   8.409 -0.1161 -0.0964 -0.1824
    1W        W65519   0.991   1.153   6.631  0.4933 -0.1339  0.1519
    1W        W65520  21.523  19.612   0.891  0.1012  0.0041 -0.1929
    1W        W65521   0.522  10.565   7.323 -0.3139  0.3385  0.1332
    1W        W65522   0.788  13.103   6.378  0.5667 -0.1948 -0.0947
    1W        W65523  28.745  10.338   1.171 -0.0855 -0.0325 -0.3104
    1W        W65524  25.740  26.522   9.244 -0.2475  0.0651  0.0620
    1W        W65525  26.871  26.777   6.892 -0.1918  0.2368  0.0515
    1W        W65526  20.435  26.289   9.289  0.1323  0.2851  0.2353
    1W        W65527  21.994  16.700   6.354  0.1779  0.0999 -0.0400
    1W        W65528  13.278  19.188   1.548 -0.1009 -0.2349 -0.2954
    1W        W65529  27.345  17.408   0.465 -0.0891  0.1492 -0.1468
    1W        W65530   2.027  23.438   6.312 -0.2037  0.1999 -0.1791
    1W        W65531   4.522   1.474   9.082 -0.0808  0.1367  0.1299
    1W        W65532  12.384  25.109   7.413  0.0157 -0.0332 -0.2043
    1W        W65533  23.498  25.256   1.825  0.1040 -0.1285  0.0663
    1W        W65534  16.341  10.526   8.289 -0.2564 -0.0180 -0.0304
    1W        W65535   6.330   6.988   8.380 -0.1473 -0.0057  0.3662
    1W        W65536   2.344  16.070   0.200  0.2889 -0.0300 -0.1870
    1W        W65537   1.666  28.737   2.979 -0.2386 -0.1171 -0.0079
    1W        W65538  17.985  28.855   7.642  0.1163 -0.3761 -0.1052
    1W        W65539  19.173  23.205   8.017 -0.1417  0.1151  0.0232
    1W        W65540  27.001  18.612   0.393 -0.1137  0.0761  0.0099
    1W        W65541   6.060  12.812   0.209  0.1948 -0.0341 -0.2040
    1W        W65542   3.355   4.019   0.980  0.0422 -0.0432  0.0848
    1W        W65543   1.155   1.363   2.336 -0.1647  0.1048  0.3479
    1W        W65544  16.134  13.214   9.292  0.1082 -0.4065 -0.2200
    1W        W65545  28.823   2.510   9.330 -0.0925  0.0344  0.2897
    1W        W65546  12.585   6.468   3.034 -0.0499  0.0600  0.1598
    1W        W65547  21.761   4.366   8.563 -0.0020 -0.3845  0.1011
    1W        W65548   7.125  11.593   2.720  0.1591 -0.3665  0.2984
    1W        W65549  21.590  20.632   0.063 -0.0151 -0.0819 -0.1492
    1W        W65550   2.068   9.833   0.733 -0.1365 -0.0910 -0.2806
    1W        W65551  27.049   3.165   9.177 -0.0526  0.1178 -0.1287
    1W        W65552  24.466  28.079   6.760  0.3829 -0.2073  0.0262
    1W        W65553   7.765   9.870   8.296 -0.0232  0.1769  0.0523
    1W        W65554  29.739  27.352   0.145 -0.0141  0.0397 -0.1998
    1W        W65555  24.578  29.953   7.238  0.0266  0.0785 -0.1104
    1W        W65556  27.434  14.675   1.173 -0.0472 -0.1030 -0.2021
    1W        W65557   0.338   7.203   0.456 -0.0369 -0.1597  0.1859
    1W        W65558  26.719  21.019   7.182 -0.0791 -0.1661 -0.0075
    1W        W65559   3.513  29.638   8.506  0.0867 -0.1450  0.0131
    1W        W65560  12.982  21.221   1.008  0.1936  0.1795 -0.2821
    1W        W65561  14.403  22.684   2.059 -0.1883 -0.0449 -0.3426
    1W        W65562  18.523  28.730   8.407  0.0291 -0.0508 -0.2287
    1W        W65563  14.812  16.776   6.498 -0.0307 -0.2125 -0.0178
    1W        W65564  13.531  29.285   1.628 -0.2921  0.1514  0.0104
    1W        W65565  11.504   0.282   1.375 -0.1887 -0.1212  0.1612
    1W        W65566  24.313  10.029   2.695 -0.1753 -0.2528 -0.0855
    1W        W65567   3.757   4.554   7.379 -0.3477  0.0178  0.0338
    1W        W65568  21.483  17.050   6.807 -0.0273 -0.0045 -0.0517
    1W        W65569   6.240  10.529   9.060 -0.1504 -0.1057 -0.1247
    1W        W65570  13.577  24.379   0.743 -0.0639  0.1905  0.0316
    1W        W65571  11.368   3.291   0.066 -0.3107 -0.0647 -0.0555
    1W        W65572   4.588  10.561   1.807  0.2278 -0.2904 -0.2424
    1W        W65573   8.748   2.655   8.170 -0.4510 -0.0004  0.2578
    1W        W65574  23.001  20.722   1.355  0.2927 -0.0400  0.3517
    1W        W65575   0.128  10.672   6.497  0.1051  0.2966  0.2105
    1W        W65576  11.790  15.912   1.421  0.0215 -0.0657  0.1478
    1W        W65577   6.989  20.907   7.812 -0.4667  0.0123  0.0252
    1W        W65578  14.851  11.893   7.310 -0.1320  0.0596 -0.3906
    1W        W65579  22.389  27.754   8.311  0.1113  0.0400 -0.2574
    1W        W65580   2.971  25.952   5.875 -0.0227 -0.0705  0.0259
    1W        W65581  28.472  27.081   0.979  0.0094  0.0880 -0.2483
    1W        W65582   0.151   1.025   2.824 -0.2112  0.3264  0.0704
    1W        W65583  18.866   4.997   8.780  0.0326  0.4118 -0.0119
    1W        W65584  27.975  19.802   0.120  0.0270  0.0375  0.4013
    1W        W65585  29.716  27.909   6.933 -0.1073  0.0620 -0.1119
    1W        W65586  19.604  19.938   6.645  0.0943 -0.0781 -0.0362
    1W        W65587   7.010  17.980   0.349 -0.1665 -0.2612 -0.2284
    1W        W65588  23.809  23.961   8.688  0.1382 -0.4180 -0.0920
    1W        W65589  27.734  15.388   6.081  0.2023  0.2493 -0.3994
    1W        W65590  29.465  17.627   0.340  0.2218 -0.1986 -0.2073
    1W        W65591  10.373  24.727   1.343 -0.1867 -0.2825 -0.1830
    1W        W65592  20.203  29.230   8.165  0.1531 -0.0735 -0.1965
    1W        W65593  14.217  28.633   7.706 -0.3941  0.1361  0.2456
    1W        W65594  16.285  21.823   7.758  0.0942 -0.5292 -0.0227
    1W        W65595   5.063   9.038   0.191 -0.2645 -0.0645 -0.0989
    1W        W65596   5.524  22.307   9.230  0.1006  0.0987  0.0811
    1W        W65597  22.139  18.040   6.640 -0.1885 -0.0367 -0.2827
    1W        W65598  16.425   8.533   2.233 -0.1429  0.0799 -0.0252
    1W        W65599  18.680   6.860   2.835  0.0977  0.1081 -0.2611
    1W        W65600  10.892   3.159   8.701  0.0105  0.0678  0.0455
    1W        W65601   8.411   4.956   2.016  0.1405  0.2028 -0.0163
    1W        W65602  16.726   8.165   1.545  0.1174 -0.5357 -0.1897
    1W        W65603  26.488  20.374   1.523  0.1077 -0.0647  0.0000
    1W        W65604  26.158  14.195   6.898 -0.1492  0.0083  0.0597
    1W        W65605  17.418  30.141   7.375 -0.2117  0.5583  0.0008
    1W        W65606  16.227  30.079   1.742  0.1120 -0.1377 -0.1723
    1W        W65607   2.144   2.882   2.386 -0.0307  0.0578  0.3243
    1W        W65608   9.267   4.347   7.695 -0.0716 -0.0195 -0.1700
    1W        W65609   5.000  12.364   8.688  0.0928  0.1482 -0.2431
    1W        W65610  20.786  16.216   7.059  0.2772  0.0651 -0.3590
    1W        W65611  23.851  24.857   0.509  0.2125 -0.2059  0.0854
    1W        W65612  14.949  19.654   2.097 -0.0341  0.0672  0.3177
    1W        W65613  19.849  14.159   7.710 -0.4606 -0.0887  0.0269
    1W        W65614  19.555  21.825   8.024 -0.2867  0.2871 -0.0088
    1W        W65615  19.057   7.169   6.573 -0.3004  0.0819  0.2608
    1W        W65616  14.958   0.295   0.791  0.0416 -0.1726  0.1380
    1W        W65617  24.865  20.277   7.434 -0.0727  0.0363 -0.2251
    1W        W65618   6.925  23.529   8.474 -0.0595  0.0608  0.1501
    1W        W65619  15.482  18.637   2.115  0.1612 -0.0799  0.0440
    1W        W65620  26.267   9.237   7.848  0.1390 -0.2225 -0.1324
    1W        W65621   3.034  13.073   1.384 -0.0518 -0.2051  0.1315
    1W        W65622  27.170  12.952   9.400  0.0180  0.1846 -0.4246
    1W        W65623  13.464  24.630   2.765  0.2632  0.1492 -0.0870
    1W        W65624  10.083  27.960   7.402 -0.1795 -0.3594  0.0201
    1W        W65625  22.099  24.928   7.326 -0.2990  0.1079  0.1423
    1W        W65626   1.114  18.575   0.959 -0.1365  0.1986  0.0749
    1W        W65627  12.227   6.279   7.263 -0.0780 -0.0491  0.2180
    1W        W65628   0.453  26.878   9.016 -0.0504 -0.0422  0.3169
    1W        W65629   3.347   5.062   6.416 -0.0667  0.0059  0.1857
    1W        W65630   6.727  15.306   8.105 -0.0609  0.2672  0.0240
    1W        W65631  26.057   7.781   7.850  0.0446  0.0783  0.0984
    1W        W65632  25.010   5.451   0.224 -0.1854 -0.1208  0.2090
    1W        W65633  13.128  12.827   7.100  0.1020  0.1365  0.0530
    1W        W65634   6.294  23.166   7.316 -0.1303 -0.1503  0.0090
    1W        W65635  22.241   0.160   6.460 -0.1959  0.2026 -0.0809
    1W        W65636  21.291  29.976   7.265  0.0741 -0.2570  0.0845
    1W        W65637  14.906  12.259   7.631 -0.0303  0.0188 -0.1323
    1W        W65638  25.306  27.704   8.497  0.2024  0.2476 -0.1077
    1W        W65639  19.753  18.860   1.078  0.1778  0.1517 -0.0908
    1W        W65640  25.375   2.226   0.136  0.0702 -0.0189 -0.1958
    1W        W65641  11.878  19.668   0.742 -0.3873  0.1167  0.1108
    1W        W65642  11.796   7.765   8.982  0.0034  0.0875  0.1686
    1W        W65643  11.615   4.436   1.132 -0.1007  0.0071 -0.1551
    1W        W65644   5.302  29.781   4.002  0.1948  0.2961  0.1524
    1W        W65645   6.801   0.349   3.060 -0.2558  0.1737  0.0192
    1W        W65646  24.025   8.362   1.342  0.3007 -0.3328  0.1377
    1W        W65647   6.316  29.133   7.117 -0.1738  0.1198 -0.2446
    1W        W65648  19.953  20.563   6.372  0.0739  0.4547  0.4372
    1W        W65649  25.439  10.351   1.625 -0.3361 -0.1530  0.0629
    1W        W65650   8.711  10.408   7.368  0.5295  0.1515 -0.0967
    1W        W65651   8.071   2.149   0.135  0.0434  0.3304 -0.2986
    1W        W65652  18.105  19.585   6.441  0.0573  0.5441 -0.1442
    1W        W65653  20.928   5.910   0.162  0.0828  0.1270  0.1484
    1W        W65654  16.210   9.833   1.439  0.0709  0.3047 -0.0520
    1W        W65655  21.115  26.078   0.759 -0.0136  0.1023  0.1570
    1W        W65656  24.701  11.146   0.576  0.1531 -0.3046  0.0243
    1W        W65657  13.616  18.210   0.873 -0.0206 -0.1225 -0.0038
    1W        W65658  13.098  12.052   9.157  0.3743 -0.1378  0.0699
    1W        W65659  11.758  16.661   0.965 -0.0406 -0.1798  0.1689
    1W        W65660   4.469  21.516   8.339 -0.0603  0.3012  0.1032
    1W        W65661  22.796  19.926   8.383 -0.2041  0.0387  0.1598
    1W        W65662  15.339  19.862   8.545 -0.1125  0.1243  0.2088
    1W        W65663  19.908  15.703   9.395  0.0388  0.1628 -0.0113
    1W        W65664  16.405  14.227   8.130 -0.2968 -0.0553  0.1379
    1W        W65665   1.751  24.167   5.893 -0.4220  0.1913  0.1722
    1W        W65666  26.829   3.466   8.087  0.0817 -0.0524 -0.1484
    1W        W65667   0.186   6.970   1.678  0.0985 -0.0626 -0.1466
    1W        W65668  11.931   5.262   1.953  0.0261  0.0349  0.0983
    1W        W65669  17.869  27.186   0.250  0.1998  0.1544  0.0034
    1W        W65670  18.196  14.438   1.276 -0.1098  0.0239 -0.0774
    1W        W65671  18.763  12.119   7.380  0.3199  0.0912  0.3259
    1W        W65672  14.786  29.098   0.269  0.0260  0.1632  0.3443
    1W        W65673  19.308  16.779   1.405  0.0892 -0.0670 -0.0317
    1W        W65674  17.818  24.519   1.183  0.1601  0.0235 -0.2086
    1W        W65675  29.189  20.222   1.952 -0.0600  0.3178  0.3621
    1W        W65676  12.598  19.608   9.140  0.1997 -0.2566  0.2515
    1W        W65677   7.328  19.601   0.453  0.1467  0.0271  0.0545
    1W        W65678  20.406   3.427   7.392 -0.4535  0.0148 -0.0960
    1W        W65679  13.071  24.789   8.185  0.4551  0.0486 -0.0435
    1W        W65680  20.401  23.183   0.779 -0.0248  0.1147 -0.0953
    1W        W65681   3.152  15.419   7.431  0.0262 -0.2658  0.0904
    1W        W65682  27.753   6.271   0.595 -0.1091  0.5912 -0.0627
    1W        W65683   9.111   1.713   1.530 -0.2715 -0.0034  0.3051
    1W        W65684  17.758   7.119   2.603  0.1313 -0.0809  0.0673
    1W        W65685  28.814  27.652   0.295  0.0131 -0.0643 -0.0411
    1W        W65686  20.846  18.165   1.873  0.3750  0.1792  0.1194
    1W        W65687  25.316  18.310   6.133  0.1644  0.2507 -0.0868
    1W        W65688   3.011   5.482   2.025 -0.2307 -0.2963 -0.1162
    1W        W65689  23.942   7.173   0.648  0.0362 -0.1387 -0.2149
    1W        W65690  27.654  21.173   1.904  0.1112 -0.2555 -0.1550
    1W        W65691  27.598  25.126   6.025 -0.0476 -0.3222 -0.3902
    1W        W65692  24.793  16.485   8.345 -0.0604 -0.0944 -0.3720
    1W        W65693  19.657   8.268   8.190 -0.1865 -0.2305 -0.3701
    1W        W65694  27.763  10.496   1.297 -0.3798 -0.1833 -0.0748
    1W        W65695  11.378  24.108   1.098 -0.1702 -0.0643 -0.0331
    1W        W65696  16.111  17.078   6.640 -0.1708  0.0673  0.0963
    1W        W65697   9.530   8.884   2.825 -0.0801  0.0884  0.2124
    1W        W65698   7.119  15.188   9.330 -0.0609 -0.2105  0.3407
    1W        W65699   5.240  19.460   7.318  0.2153 -0.1487 -0.1236
    1W        W65700  17.262  28.639   2.153  0.0873  0.1454 -0.1217
    1W        W65701  28.184  23.496   2.222  0.1278 -0.0223 -0.0474
    1W        W65702  13.222  29.936   2.152 -0.2153  0.2236 -0.0396
    1W        W65703  27.259  19.964   9.338  0.0022  0.0713  0.1787
    1W        W65704  13.176   6.034   9.226  0.4927 -0.0106  0.0652
    1W        W65705  13.094  29.679   3.274  0.3235 -0.1130 -0.0372
    1W        W65706  28.728  23.909   2.016 -0.2761 -0.0033 -0.2762
    1W        W65707  19.652  25.905   8.448  0.1578 -0.1361  0.2274
    1W        W65708  13.113  13.533   2.321 -0.4072 -0.0766 -0.1200
    1W        W65709  18.233   4.370   7.666  0.0505  0.0060  0.2117
    1W        W65710   1.431  22.480   2.108 -0.1577 -0.0757  0.0781
    1W        W65711   4.643  24.605   1.896 -0.0029 -0.0491 -0.1867
    1W        W65712   1.000   8.517   7.356  0.0963 -0.1048 -0.3537
    1W        W65713  27.477  11.258   7.304  0.0881 -0.1710  0.1146
    1W        W65714  15.278   3.242   0.077  0.1514 -0.2078  0.0056
    1W        W65715  29.405   0.509   3.885  0.2621  0.1004  0.5852
    1W        W65716   7.633   9.226   1.468  0.4323 -0.1659 -0.2328
    1W        W65717  17.243   2.392   1.156  0.0167  0.1464  0.1233
    1W        W65718   5.299   1.557   8.393 -0.2518  0.0281  0.0644
    1W        W65719  25.588   2.042   2.783 -0.0981 -0.1074  0.1249
    1W        W65720  24.126  18.970   1.125  0.0709 -0.0131 -0.3761
    1W        W65721  24.721  26.560   0.445  0.1701  0.2832  0.1855
    1W        W65722  13.450  20.171   1.561  0.0727 -0.2685 -0.2635
    1W        W65723  12.852   7.837   8.323 -0.1928  0.0537  0.2101
    1W        W65724   6.555  29.863   9.259  0.2234  0.0164  0.0897
    1W        W65725   2.033   5.450   0.663 -0.2492 -0.2780 -0.1458
    1W        W65726  14.830  21.037   8.287  0.0251 -0.0188  0.0145
    1W        W65727  17.289  17.923   0.688  0.1973 -0.5240  0.1894
    1W        W65728  10.498  16.301   0.472 -0.0555  0.1701  0.1458
    1W        W65729   2.145  20.183   6.622  0.1541  0.1699  0.0803
    1W        W65730  27.409   7.350   6.204  0.4301  0.0750 -0.2246
    1W        W65731  10.425  26.794   7.236 -0.4149  0.0155 -0.0884
    1W        W65732  21.978   2.981   8.705  0.1263  0.0436  0.0750
    1W        W65733  11.632  29.680   7.647  0.0581 -0.3404  0.0957
    1W        W65734  27.707   3.657   8.063 -0.2618 -0.1576  0.1068
    1W        W65735  24.425  24.755   1.149  0.0331 -0.0966  0.0184
    1W        W65736  23.198  12.050   0.635 -0.1379 -0.3019  0.1827
    1W        W65737   3.823  24.516   6.800 -0.0577  0.0221  0.1920
    1W        W65738  29.456   5.516   8.176 -0.1159 -0.1018  0.1913
    1W        W65739  13.389  15.212   9.207  0.0446 -0.1470 -0.1877
    1W        W65740  17.279  28.242   0.565 -0.0017  0.0528  0.0281
    1W        W65741  18.622  21.720   9.076 -0.1194  0.0537 -0.2070
    1W        W65742  22.163  23.884   1.627 -0.0127  0.1445  0.2355
    1W        W65743  12.327   8.446   7.753 -0.2222 -0.1597  0.5304
    1W        W65744  11.800   1.357   0.891 -0.1223 -0.1362  0.0919
    1W        W65745  16.728  24.893   3.318  0.0099 -0.0712  0.4032
    1W        W65746   0.626  15.201   7.214 -0.1207 -0.1342 -0.0370
    1W        W65747   4.348  19.198   5.899 -0.1806  0.1896 -0.1084
    1W        W65748  28.440   6.838   6.936  0.0959 -0.1286  0.0371
    1W        W65749   1.248  24.241   7.628  0.0284 -0.3995 -0.2389
    1W        W65750  21.203   7.343   0.504 -0.0562 -0.1388 -0.1587
    1W        W65751  11.883  11.135   2.791  0.0515  0.2998  0.0699
    1W        W65752   1.176  25.512   2.345  0.0227 -0.0038 -0.1277
    1W        W65753   1.855   5.772   7.128 -0.2848 -0.1314  0.2074
    1W        W65754  16.888   6.322   7.587 -0.0979  0.0512 -0.1195
    1W        W65755   1.488  15.708   6.235 -0.0609  0.3420 -0.3361
    1W        W65756  19.766  18.972   6.694 -0.0452  0.1481  0.0301
    1W        W65757  30.155   4.576   0.333 -0.0500 -0.1456 -0.0812
    1W        W65758  17.242  24.969   8.008  0.1931  0.2899  0.0996
    1W        W65759   8.844  10.768   7.807  0.1813  0.1705  0.0406
    1W        W65760  17.982  30.148   1.075  0.0083 -0.1507  0.1641
    1W        W65761   5.915  28.255   1.523  0.0854  0.2055 -0.1089
    1W        W65762   2.553   5.121   7.034 -0.0823  0.0204  0.2908
    1W        W65763   0.526  26.113   2.043 -0.0360 -0.3824 -0.0342
    1W        W65764  17.225  18.844   1.093  0.0147  0.2308  0.3696
    1W        W65765   5.543   5.308   7.283  0.0927  0.2948 -0.2150
    1W        W65766  21.805  28.576   7.020 -0.0146 -0.0281  0.2621
    1W        W65767  28.536  23.698   6.599  0.1022  0.0703  0.0299
    1W        W65768   9.358  21.526   6.606 -0.1515 -0.0973  0.3104
    1W        W65769  20.923  25.595   1.018  0.2689  0.2852  0.2373
    1W        W65770  18.150   8.549   0.143 -0.1159  0.6063  0.0118
    1W        W65771  27.253  22.539   7.685  0.0282  0.0262 -0.1439
    1W        W65772  13.363   6.255   8.081  0.2688 -0.2114 -0.0174
    1W        W65773  17.755   8.090   3.016 -0.1114 -0.2748 -0.1283
    1W        W65774  19.422   0.124   8.159  0.2447 -0.1323 -0.0816
    1W        W65775  10.526   4.683   3.362  0.0045  0.1104  0.0020
    1W        W65776   7.519   5.366   1.221  0.1648 -0.2046 -0.1825
    1W        W65777  11.263  18.506   7.821  0.0176  0.2665  0.4536
    1W        W65778  15.464  14.786   8.645 -0.3668 -0.3206 -0.2156
    1W        W65779  13.918  28.569   0.077  0.2110  0.3223 -0.2490
    1W        W65780  25.540  22.718   0.971 -0.1732 -0.1433 -0.0395
    1W        W65781   0.780  15.888   8.750  0.1745 -0.0618  0.1596
    1W        W65782  16.787   8.222   2.413 -0.0285  0.0497  0.2496
    1W        W65783   5.015  11.074   1.914  0.0915 -0.1425 -0.1475
    1W        W65784  17.163   2.817   2.026  0.2075  0.2920 -0.1776
    1W        W65785  12.518   7.201   0.322 -0.1919 -0.0671 -0.0282
    1W        W65786   0.980  27.163   0.600  0.4031  0.0808  0.2820
    1W        W65787   8.302  28.001   8.444 -0.2539 -0.1267 -0.0709
    1W        W65788   0.731   9.606   0.532  0.0111 -0.1065 -0.1102
    1W        W65789   2.531  29.203   8.943 -0.1453 -0.3299 -0.4283
    1W        W65790  27.817  13.995   8.438 -0.0663 -0.1221 -0.2567
    1W        W65791  26.481   4.924   7.493  0.1236  0.1174  0.1494
    1W        W65792  28.096   5.073   8.428  0.1089  0.0950 -0.1316
    1W        W65793  28.828  15.468   8.030  0.3339 -0.1175  0.0140
    1W        W65794  17.457  17.057   9.311  0.3406 -0.1662  0.1835
    1W        W65795  21.382  24.539   2.795 -0.0920  0.1086  0.1419
    1W        W65796  28.271  26.695   2.032  0.1484  0.2082  0.0418
    1W        W65797  25.797  29.135   2.284  0.0074  0.0709  0.1234
    1W        W65798   5.572   8.457   7.564  0.1216  0.3864 -0.1151
    1W        W65799   6.766  23.399   1.970 -0.0588 -0.0958 -0.3229
    1W        W65800   7.589  22.253   6.572  0.0068 -0.0157 -0.1539
    1W        W65801   5.526  28.894   3.725  0.0550 -0.0749 -0.1639
    1W        W65802   4.587   5.685   2.963 -0.0512  0.0708  0.1175
    1W        W65803  10.846   4.966   0.946  0.0951  0.0317  0.0496
    1W        W65804  18.477  19.879   7.669 -0.0508  0.2401  0.0793
    1W        W65805  29.645  12.728   9.356 -0.2882  0.0790 -0.0937
    1W        W65806   0.173  18.489   6.265 -0.0231  0.1348  0.0430
    1W        W65807  21.070   4.372   2.363 -0.2018  0.2374  0.2671
    1W        W65808  13.193   7.787   3.576 -0.0407  0.0852 -0.3161
    1W        W65809  15.675   7.845   0.268  0.0052 -0.1131 -0.0912
    1W        W65810  12.017  13.776   7.422  0.1342 -0.2337  0.1310
    1W        W65811  15.397  16.533   7.457  0.1072  0.1114 -0.0398
    1W        W65812   9.109  22.754   7.582 -0.0884  0.0520 -0.0664
    1W        W65813   3.176  24.864   8.732  0.0845  0.0841  0.0897
    1W        W65814   0.432  11.663   1.951 -0.0076  0.0633  0.4146
    1W        W65815  29.091  25.704   8.566  0.2150 -0.1889 -0.2542
    1W        W65816  18.098  14.167   1.768  0.0033 -0.1483 -0.1657
    1W        W65817  18.535  24.686   2.540 -0.2180  0.2188  0.1304
    1W        W65818  17.189  19.646   7.631 -0.0666 -0.0573  0.1346
    1W        W65819  10.520  29.538   7.981  0.1951 -0.0013  0.1306
    1W        W65820  27.047   9.555   0.570 -0.0455 -0.0494  0.3131
    1W        W65821   1.217  25.101   6.893  0.0809  0.1891  0.1136
    1W        W65822   3.112  29.439   0.810 -0.0792 -0.0380  0.1027
    1W        W65823  28.221   1.804   8.234  0.4590 -0.2116 -0.0773
    1W        W65824   3.637  19.341   7.205  0.0970  0.1101 -0.0304
    1W        W65825  19.574  13.005   1.863 -0.1610  0.0953 -0.4616
    1W        W65826  12.082  28.876   0.439 -0.6519  0.1050  0.0105
    1W        W65827  23.027   3.480   6.923 -0.1924 -0.0754  0.2516
    1W        W65828   8.173  15.738   1.950 -0.1415 -0.0352  0.1782
    1W        W65829   0.153   2.214   1.860 -0.2040  0.2705 -0.2218
    1W        W65830  12.886  26.432   6.101  0.1575 -0.0082 -0.2268
    1W        W65831   1.060   5.392   7.045 -0.1910  0.1126 -0.0180
    1W        W65832  18.447  22.676   0.900 -0.3505  0.0123  0.3960
    1W        W65833  24.725  14.792   6.422  0.0362  0.0637 -0.0069
    1W        W65834  28.618  18.933   7.209 -0.0725  0.1075  0.2060
    1W        W65835  24.437  10.539   1.833  0.1746 -0.3060  0.1685
    1W        W65836  18.567  25.055   0.443  0.0082 -0.2118  0.2102
    1W        W65837   3.836  21.298   6.019 -0.1782 -0.1524  0.0195
    1W        W65838   0.993   1.449   7.643  0.2860  0.2421  0.0778
    1W        W65839  26.437  26.876   1.484 -0.2765  0.0649 -0.2762
    1W        W65840  14.788  26.807   0.423 -0.0042 -0.1598 -0.2121
    1W        W65841   1.299  11.498   8.616  0.1289 -0.1647 -0.3092
    1W        W65842  18.177   2.449   1.299  0.0770  0.2518  0.0169
    1W        W65843  11.806  29.993   0.290  0.0651  0.2159 -0.1263
    1W        W65844  27.582  26.851   8.668  0.2453 -0.0170 -0.1181
    1W        W65845   2.044   5.687   1.135 -0.1301  0.0442 -0.3025
    1W        W65846  27.064  15.593   2.108 -0.3888  0.0924  0.2926
    1W        W65847  13.032  18.529   1.573  0.2696 -0.0508  0.0269
    1W        W65848  10.894  29.191   8.034 -0.1861  0.2752 -0.2733
    1W        W65849   2.951   8.497   7.515  0.1114 -0.1575 -0.4206
    1W        W65850  22.497   3.397   7.020  0.1514  0.1000 -0.0176
    1W        W65851   5.943  23.681   8.147 -0.1823 -0.0541  0.2250
    1W        W65852   9.602  25.933   8.900 -0.0685 -0.0562 -0.0687
    1W        W65853  12.211   2.888   1.455 -0.2812  0.0862 -0.2983
    1W        W65854  17.517   7.292   7.741  0.1003  0.1139 -0.0071
    1W        W65855  28.305  11.239   1.451  0.3268  0.0577 -0.2201
    1W        W65856  15.754  21.713   1.925 -0.2007 -0.0900  0.1101
    1W        W65857   6.384  30.004   0.281 -0.2524 -0.0470  0.0212
    1W        W65858   2.440  24.552   9.311 -0.2734  0.2063 -0.4139
    1W        W65859   3.344   7.762   2.575 -0.0517 -0.1466  0.0201
    1W        W65860  28.279   4.506   7.168  0.1678 -0.3346  0.0062
    1W        W65861  21.438   6.757   6.703 -0.0015  0.1525 -0.2806
    1W        W65862  17.780  17.225   7.284 -0.0394  0.0261 -0.0791
    1W        W65863   7.020   0.066   0.503 -0.1811  0.0220 -0.3887
    1W        W65864  16.806  21.092   7.982  0.0442  0.4076  0.2438
    1W        W65865  10.175  28.814   1.222 -0.0869  0.2589 -0.0261
    1W        W65866   8.812   0.592   0.831  0.3586  0.3550 -0.0895
    1W        W65867  18.607  19.172   1.719  0.0056 -0.3368 -0.1308
    1W        W65868  21.164   2.479   9.343 -0.3572  0.1124  0.0307
    1W        W65869   8.237   9.825   9.283  0.1012  0.0702 -0.1357
    1W        W65870  22.827  22.566   6.649 -0.0930  0.4257 -0.2460
    1W        W65871  17.980   9.751   2.053 -0.1837  0.3057 -0.0828
    1W        W65872   4.515   2.076   2.038  0.0037 -0.1181  0.1933
    1W        W65873   7.740  22.312   7.605  0.2652 -0.1947  0.1534
    1W        W65874   6.693  27.671   1.678  0.3882 -0.0375  0.0153
    1W        W65875   1.067  18.620   1.506 -0.1584  0.1516 -0.1834
    1W        W65876  25.110  11.456   0.667  0.0916  0.0838  0.0161
    1W        W65877  12.929  18.049   1.650 -0.0255  0.0614 -0.0624
    1W        W65878   1.844  13.044   0.795 -0.1982  0.0533  0.1606
    1W        W65879  10.366  23.707   8.274 -0.0041 -0.0596  0.0920
    1W        W65880  24.173  15.078   9.075  0.0358  0.1672 -0.2210
    1W        W65881  12.372   7.191   8.514 -0.1216  0.2564  0.1519
    1W        W65882  29.622   2.528   2.209 -0.1240  0.0317  0.1381
    1W        W65883  12.176  16.609   2.166 -0.0445  0.2086 -0.1873
    1W        W65884  22.718  23.462   1.544 -0.1447 -0.1114  0.2042
    1W        W65885   3.789   5.296   3.152  0.4259 -0.5218 -0.1930
    1W        W65886   3.364  16.544   8.296  0.2680  0.0130 -0.3676
    1W        W65887   4.302  10.294   9.277 -0.1066 -0.0295  0.1922
    1W        W65888   1.690   3.391   1.674 -0.0648  0.1778 -0.0542
    1W        W65889  27.390  18.285   0.189  0.1720  0.2514  0.0750
    1W        W65890  25.372  12.140   1.716  0.1193 -0.1155  0.2480
    1W        W65891   8.793  19.127   1.769 -0.2508 -0.2148 -0.1284
    1W        W65892  26.855  25.624   2.558 -0.1749  0.0950  0.1757
    1W        W65893  19.478   2.228   7.223 -0.0607  0.0869 -0.0801
    1W        W65894   0.365  22.552   7.106  0.1116 -0.1518  0.0950
    1W        W65895  29.362  15.979   0.290  0.1353  0.1825  0.0895
    1W        W65896   2.036   7.604   7.890  0.2462 -0.0242 -0.0336
    1W        W65897  12.817   6.079   8.852  0.1596 -0.2657  0.2231
    1W        W65898  21.474  13.426   9.313 -0.1219 -0.1718 -0.3633
    1W        W65899   8.101   0.616   1.169  0.2253 -0.0079  0.1698
    1W        W65900  15.733  22.926   1.005 -0.2239 -0.1326  0.0210
    1W        W65901   5.106  29.772   9.246  0.2266  0.1712 -0.1442
    1W        W65902   9.037   9.416   1.147 -0.1457 -0.3908 -0.2077
    1W        W65903   9.945  23.505   8.500 -0.1573 -0.1867  0.1342
    1W        W65904   7.038  15.054   1.332 -0.0490 -0.1709 -0.3178
    1W        W65905  29.028   1.703   7.307  0.1662  0.2117  0.1818
    1W        W65906  28.698  10.629   0.391  0.0029  0.0082  0.2431
    1W        W65907   5.907  21.658   1.967  0.3720  0.2299 -0.0452
    1W        W65908  27.772  18.186   6.047  0.0335  0.0271 -0.2131
    1W        W65909   9.184  27.304   7.601  0.1933  0.1992  0.3180
    1W        W65910  28.388  11.670   1.206 -0.3393 -0.0378 -0.0165
    1W        W65911   7.346  26.996   6.337 -0.0461 -0.1815 -0.0963
    1W        W65912   6.826   6.449   8.918  0.0315 -0.1354 -0.0031
    1W        W65913  28.634  29.936   8.200  0.0276 -0.0119  0.2503
    1W        W65914  28.521  11.240   7.410 -0.0178  0.0416  0.0709
    1W        W65915  24.242  27.786   1.215 -0.1427  0.0881  0.0201
    1W        W65916   1.997  26.747   2.693 -0.4796  0.0263  0.2111
    1W        W65917  26.589  17.933   0.658  0.0300 -0.0100 -0.2112
    1W        W65918  12.096  15.233   7.929 -0.1089 -0.2199  0.1546
    1W        W65919   9.820  28.717   2.602  0.2201  0.1127 -0.2046
    1W        W65920  26.241   6.158   8.855 -0.2392  0.1472  0.1865
    1W        W65921   5.610  24.712   6.478  0.0307 -0.0590  0.2284
    1W        W65922  22.043  13.780   1.124 -0.2170 -0.0807  0.0824
    1W        W65923  21.643   3.329   7.048 -0.0078  0.2094  0.2103
    1W        W65924  22.817  16.425   0.543  0.3310 -0.2730  0.0904
    1W        W65925  21.460  28.177   7.972 -0.0117 -0.0361 -0.1883
    1W        W65926  24.690  20.549   7.008  0.2589 -0.0225 -0.4911
    1W        W65927  18.377  28.977   0.039 -0.3664  0.0788  0.0739
    1W        W65928   9.366  28.310   7.529  0.3481 -0.0922 -0.0587
    1W        W65929  24.710  12.851   9.332 -0.0963 -0.4495 -0.0607
    1W        W65930   4.138  12.688   1.529 -0.3782  0.0973  0.0394
    1W        W65931   8.933   9.579   7.755  0.3836  0.0984  0.1673
    1W        W65932   5.746   0.647   0.544 -0.2536 -0.1310 -0.0561
    1W        W65933   2.689   6.549   7.493 -0.2503 -0.3045  0.0016
    1W        W65934  23.054  15.619   8.721 -0.1571 -0.1034  0.2866
    1W        W65935  15.850  28.585   8.681 -0.3180  0.0885  0.0391
    1W        W65936   3.589  13.951   6.648  0.0618  0.1880  0.0411
    1W        W65937  19.124  27.996   8.366 -0.0580  0.2739  0.1765
    1W        W65938  10.993  22.060   1.260 -0.0960 -0.0555  0.1794
    1W        W65939  10.498  15.904   1.078 -0.0017 -0.0194  0.0605
    1W        W65940  17.374   5.789   3.049  0.0923 -0.0796 -0.1108
    1W        W65941   8.343  18.551   0.214 -0.2118  0.1564  0.4136
    1W        W65942  29.858  19.610   7.601  0.0821 -0.0470 -0.2861
    1W        W65943  25.658  12.404   8.254  0.1702  0.2116  0.0420
    1W        W65944  20.449  13.314   0.344  0.0063 -0.0915  0.1209
    1W        W65945  29.477   7.238   1.915  0.0493  0.2046  0.1660
    1W        W65946  26.420  29.785   2.029  0.1246 -0.2361  0.0736
    1W        W65947  10.137  17.220   1.732 -0.2842  0.0326 -0.2018
    1W        W65948  13.646   4.904   1.496 -0.0166  0.0196 -0.0000
    1W        W65949  21.179  29.270   0.592  0.1331 -0.2428  0.1969
    1W        W65950  16.212  12.183   7.218  0.0614  0.0956  0.1626
    1W        W65951  12.989  23.200   0.872 -0.2541  0.1906 -0.0512
    1W        W65952   0.147  17.980   8.072 -0.1235  0.1892  0.0389
    1W        W65953  23.258   2.235   1.032 -0.0961  0.0858  0.4852
    1W        W65954   5.342  17.272   8.116 -0.0505 -0.2215  0.2882
    1W        W65955   8.000   9.227   2.321 -0.1628 -0.0161 -0.0706
    1W        W65956  23.925  17.482   1.356  0.0683 -0.0630  0.0392
    1W        W65957   2.294  28.240   1.567  0.1784  0.1211  0.0337
    1W        W65958   4.043  20.237   0.366 -0.1097 -0.1369  0.1325
    1W        W65959  10.458   4.581   8.469  0.0630  0.1022  0.0962
    1W        W65960  12.475  22.624   9.100 -0.3440  0.2634 -0.0993
    1W        W65961  28.041  23.988   2.220 -0.2948  0.1410  0.1574
    1W        W65962  25.116  10.844   0.716 -0.2892 -0.2404  0.1553
    1W        W65963   7.598   3.376   2.461  0.2225  0.0198  0.2965
    1W        W65964  10.214  28.020   7.981  0.0758  0.3491  0.1346
    1W        W65965  25.503   6.637   1.385  0.0183 -0.0827  0.1123
    1W        W65966  29.559  30.116   1.619  0.0489 -0.1483  0.1291
    1W        W65967  29.599   1.535   8.922  0.2109  0.1613 -0.1299
    1W        W65968  22.307  15.046   1.280  0.0963  0.1392 -0.2160
    1W        W65969   4.478  21.967   0.481 -0.1101 -0.0150 -0.0423
    1W        W65970  16.180  19.595   8.577  0.2694  0.3772  0.2022
    1W        W65971   6.666  20.752   6.081 -0.1123 -0.0083 -0.2282
    1W        W65972   9.990  24.513   1.025 -0.2369  0.1554 -0.1990
    1W        W65973  17.896  21.322   1.951  0.1438  0.2851 -0.0476
    1W        W65974  19.114  17.010   0.949 -0.1966 -0.3116  0.2740
    1W        W65975  28.720  22.059   0.752 -0.0417 -0.0808 -0.0179
    1W        W65976  12.073   6.436   8.174 -0.2130  0.1432 -0.0818
    1W        W65977  17.020   2.312   2.129 -0.0714 -0.0797 -0.0211
    1W        W65978   7.528   1.669   3.416  0.1285 -0.0138 -0.0998
    1W        W65979  28.188  16.108   7.243  0.3389  0.0248  0.2747
    1W        W65980  19.255  13.967   0.848  0.2496 -0.2327  0.1083
    1W        W65981   6.431  12.701   2.146 -0.1523  0.0624  0.1498
    1W        W65982  23.200   8.100   8.412  0.0698 -0.1656 -0.0355
    1W        W65983   9.635   7.820   3.889  0.4535 -0.0763 -0.0140
    1W        W65984   3.190  29.253   7.809 -0.2177 -0.0415  0.1364
    1W        W65985   5.080  17.009   6.700 -0.3671  0.1332 -0.0018
    1W        W65986   4.715  29.648   0.879  0.2183 -0.2553 -0.0215
    1W        W65987  12.698  15.927   0.161 -0.4491  0.0312  0.1369
    1W        W65988  24.833   7.550   6.941  0.2081 -0.2762 -0.0815
    1W        W65989   5.125  22.636   8.503 -0.0400 -0.0214  0.0613
    1W        W65990  24.819   2.030   0.802  0.1683  0.2308 -0.1965
    1W        W65991   0.163  14.726   7.687 -0.1821 -0.1874  0.0275
    1W        W65992   7.530  28.048   2.583 -0.0363  0.0626  0.1398
    1W        W65993   6.841  21.711   8.442  0.0277  0.2068 -0.0035
    1W        W65994  27.386  15.837   5.272  0.2640 -0.0036  0.1329
    1W        W65995  14.917  28.415   1.150  0.1839 -0.0132  0.1884
    1W        W65996  28.520  20.416   6.978 -0.3880  0.4087  0.0848
    1W        W65997  13.300  23.278   2.886  0.0074  0.1714 -0.0254
    1W        W65998   5.174  21.714   1.216 -0.2523  0.0064  0.2714
    1W        W65999  20.373  26.614   7.827  0.1973  0.2142  0.0461
    1W        W66000   7.622  22.901   7.681 -0.0512 -0.0961 -0.3443
    1W        W66001  26.623   4.348   8.635 -0.0838 -0.0539  0.0879
    1W        W66002  22.766   0.478   2.280 -0.0879 -0.0654  0.1351
    1W        W66003   2.464   5.937   6.560  0.3174 -0.1578  0.2061
    1W        W66004   4.800   6.125   2.950  0.0920  0.1703 -0.1147
    1W        W66005  28.835  14.614   7.978  0.2167  0.0361  0.0996
    1W        W66006  13.399   3.630   0.923 -0.1973 -0.2074 -0.0767
    1W        W66007  20.652   3.272   6.904  0.1476  0.2659 -0.0814
    1W        W66008  23.635  17.401   0.461 -0.2504 -0.1284 -0.0031
    1W        W66009   3.678   6.438   8.802  0.0037 -0.2339  0.0465
    1W        W66010   0.295   8.627   0.622  0.1680  0.0916  0.1396
    1W        W66011  27.582   3.449   2.206 -0.0275 -0.0040  0.0046
    1W        W66012  29.575  23.803   1.911 -0.0770 -0.0159 -0.1580
    1W        W66013  13.346  21.751   7.425  0.3218 -0.1380 -0.3308
    1W        W66014  27.018  12.530   0.234  0.0427 -0.2988  0.1097
    1W        W66015  13.934  18.836   7.316  0.1021 -0.0447 -0.2012
    1W        W66016  29.449  12.073   5.982  0.0041  0.0918 -0.0802
    1W        W66017   6.872  29.100   3.302 -0.3461 -0.0982 -0.1809
    1W        W66018  22.211  12.169   8.419 -0.2048  0.1432  0.0094
    1W        W66019  20.214  28.700   8.205  0.0078 -0.1282  0.2894
    1W        W66020   5.875  24.179   8.358 -0.2763  0.1497  0.3247
    1W        W66021  18.035   7.502   1.083  0.1859  0.0597  0.3008
    1W        W66022  16.588   8.005   0.518  0.1044 -0.1138 -0.1316
    1W        W66023  12.450   2.121   1.131 -0.0083  0.1174 -0.0700
    1W        W66024  17.736   3.461   0.120 -0.1450  0.3685  0.1916
    1W        W66025  29.524   2.036   2.493  0.1393  0.3579  0.1697
    1W        W66026  11.490  16.490   0.078 -0.1160 -0.0506 -0.2819
    1W        W66027  16.771  28.607   9.214 -0.1197 -0.0408 -0.3226
    1W        W66028   3.718  10.920   1.539 -0.0860 -0.0161  0.1757
    1W        W66029  20.126   7.478   7.349  0.2998  0.2726  0.1733
    1W        W66030   7.667  10.281   2.825 -0.0532  0.3289 -0.0026
    1W        W66031  16.829  14.294   7.220  0.1285 -0.0008  0.1088
    1W        W66032  29.071   1.060   6.750  0.0121  0.1600 -0.0220
    1W        W66033  15.952  28.846   7.168 -0.0815  0.1499 -0.0580
    1W        W66034  12.295   5.383   3.434  0.0593 -0.2945 -0.1784
    1W        W66035  27.728  23.781   7.591 -0.2862  0.0486  0.1364
    1W        W66036  29.721  19.877   5.249 -0.2895  0.1173  0.0567
    1W        W66037  25.129   3.319   6.663  0.1142 -0.0865  0.0372
    1W        W66038  12.826   0.599   0.413 -0.0913 -0.2495 -0.2491
    1W        W66039   3.949   3.106   3.284 -0.0382 -0.0218  0.2367
    1W        W66040  17.160   8.055   7.181 -0.0688  0.2327 -0.0666
    1W        W66041   7.666   1.345   2.298  0.2311  0.0540  0.0166
    1W        W66042   7.871  16.527   1.741  0.1109  0.0505  0.4741
    1W        W66043   1.325   3.419   0.858 -0.1187  0.3039 -0.0322
    1W        W66044  21.833   1.494   7.463  0.0558  0.2597 -0.2501
    1W        W66045   5.576   0.569   8.136 -0.2710  0.0395  0.2511
    1W        W66046  13.361  16.874   8.450 -0.4327 -0.0387  0.2457
    1W        W66047   4.559  22.014   1.086  0.1497  0.2490  0.2666
    1W        W66048  10.315  21.947   2.580 -0.1710 -0.2729  0.1078
    1W        W66049  14.586  16.059   8.882  0.2943 -0.0926 -0.0518
    1W        W66050   8.455  27.298   0.315  0.0073  0.0772  0.2811
    1W        W66051   6.460   5.646   8.495  0.1273 -0.1071  0.2313
    1W        W66052   6.393   7.040   2.613  0.0501  0.2211  0.1325
    1W        W66053  29.863  28.231   0.985  0.3193  0.0592  0.1144
    1W        W66054   8.310  23.819   8.336 -0.2020  0.1190  0.0828
    1W        W66055  19.026   1.659   1.566 -0.4453  0.0705  0.3920
    1W        W66056  20.702  24.511   0.424  0.1045 -0.2811 -0.0613
    1W        W66057  23.586  13.644   1.194 -0.2978 -0.2251  0.0403
    1W        W66058   3.217  25.578   0.081  0.3669 -0.2699 -0.0335
    1W        W66059  26.399   9.986   8.377  0.1543 -0.1727 -0.1301
    1W        W66060  23.707   2.165   1.271  0.1703 -0.1958 -0.0758
    1W        W66061  29.885  28.366   0.173  0.0721 -0.1195 -0.2845
    1W        W66062  10.047  27.028   0.465  0.1141 -0.0632  0.1803
    1W        W66063  28.499   6.753   1.690  0.0409  0.0717 -0.5414
    1W        W66064  29.283  20.617   1.570 -0.4139  0.1493 -0.2192
    1W        W66065   9.464  26.346   1.795  0.1284 -0.2095 -0.0644
    1W        W66066   7.246  16.855   1.260 -0.1807 -0.1427  0.0559
    1W        W66067  14.142   0.352   0.114  0.1583 -0.1761  0.1614
    1W        W66068   3.723   1.610   6.950 -0.0882  0.0105 -0.0953
    1W        W66069  28.002   1.948   0.842  0.0653 -0.3191 -0.5595
    1W        W66070  28.803   5.633   7.695 -0.1824 -0.0033 -0.0281
    1W        W66071  13.352  26.805   2.182 -0.0502 -0.0312  0.1672
    1W        W66072   1.686  17.656   0.603 -0.1884  0.0278  0.1436
    1W        W66073  24.595  19.274   1.391 -0.0111  0.1119 -0.2926
    1W        W66074   7.279  23.901   7.600 -0.1468  0.1554  0.2289
    1W        W66075  20.995  12.471   0.498 -0.0038  0.0057 -0.5404
    1W        W66076  25.214   2.565   8.949  0.1806  0.3287  0.0473
    1W        W66077  14.067  29.956   0.056  0.0701 -0.2439 -0.0827
    1W        W66078  25.207  22.163   8.592  0.1696  0.0966  0.0729
    1W        W66079   9.801  10.117   8.606 -0.1276  0.2507  0.1608
    1W        W66080  19.104   8.343   7.672 -0.1465  0.0519 -0.2312
    1W        W66081  18.069  28.169   2.390  0.0038 -0.1708  0.3804
    1W        W66082   2.292   4.861   2.319  0.1266 -0.0171  0.0992
    1W        W66083  17.188   7.315   2.645 -0.1728 -0.1859  0.2855
    1W        W66084  18.456   9.077   2.022  0.3338  0.0286 -0.1937
    1W        W66085  14.658   5.798   2.068  0.0070  0.2486 -0.0843
    1W        W66086   7.936  23.484   8.413  0.2274 -0.2018  0.2313
    1W        W66087  20.800  21.402   8.242 -0.0460  0.1510 -0.2719
    1W        W66088  28.869   8.517   7.732 -0.4312 -0.0975  0.2211
    1W        W66089   0.621  16.342   9.158  0.0959  0.0093  0.3953
    1W        W66090   1.728   3.592   9.008 -0.2210 -0.1439 -0.0836
    1W        W66091  13.140  20.833   9.125 -0.0458  0.0720 -0.1147
    1W        W66092  11.689   0.721   8.340 -0.1005  0.1507  0.2796
    1W        W66093  12.157  13.760   7.934 -0.0545 -0.0708 -0.1480
    1W        W66094  29.672  12.512   0.733  0.4312 -0.1095 -0.0990
    1W        W66095   3.445  20.691   7.640 -0.0355  0.0062 -0.0088
    1W        W66096  20.323   5.809   3.117 -0.0776  0.0585  0.0705
    1W        W66097   7.138   4.860   7.847 -0.1087  0.1810 -0.0628
    1W        W66098  12.147  24.719   1.449 -0.0125 -0.0291  0.2424
    1W        W66099  26.151   4.975   6.202 -0.3486 -0.1534  0.3292
    1W        W66100  26.505  19.532   6.204 -0.1041  0.0891  0.3239
    1W        W66101  29.520  24.321   2.824 -0.4048  0.1285 -0.0992
    1W        W66102   1.167   7.634   8.636 -0.0540 -0.2080  0.3405
    1W        W66103  16.546  19.122   7.377  0.1657 -0.2556 -0.1539
    1W        W66104  28.392  22.300   2.485  0.2029  0.1258  0.2265
    1W        W66105  15.594  29.015   7.741  0.0301  0.5450 -0.2464
    1W        W66106   1.807   9.631   2.648  0.1435  0.2476  0.1837
    1W        W66107  17.191   7.661   2.260 -0.0157 -0.2273 -0.1192
    1W        W66108   9.479   6.814   8.937  0.0403 -0.1755 -0.1106
    1W        W66109  25.059   8.831   2.929 -0.0495  0.1713  0.0784
    1W        W66110  17.848  16.452   8.563 -0.0804 -0.2310  0.0302
    1W        W66111   1.100   2.216   8.923 -0.0055  0.1308  0.1223
    1W        W66112  16.814  21.316   0.769  0.1807 -0.0034  0.0696
    1W        W66113  15.507   4.442   7.537 -0.0084 -0.1155 -0.4394
    1W        W66114  29.801   9.423   0.738 -0.0207 -0.0102  0.0754
    1W        W66115  15.903  27.287   2.134 -0.1876  0.2355  0.0635
    1W        W66116  24.040  13.963   5.874  0.2867 -0.0783  0.0841
    1W        W66117   7.768  27.509   8.990 -0.1673 -0.1445  0.2944
    1W        W66118   1.859   7.131   7.797  0.2954  0.0051 -0.0548
    1W        W66119   2.118   6.461   2.743  0.2241  0.0550  0.1156
    1W        W66120   2.527  27.927   2.484 -0.0353 -0.3519  0.1261
    1W        W66121  23.786   3.334   1.044  0.1955 -0.0104  0.0238
    1W        W66122  10.245  18.153   0.616 -0.1567 -0.0932 -0.1422
    1W        W66123   4.307  30.078   8.484  0.1611  0.2499 -0.0325
    1W        W66124  22.820   4.170   7.464 -0.3805  0.3220 -0.1591
    1W        W66125  25.179  26.721   0.390 -0.2905 -0.0602  0.0608
    1W        W66126   2.331  20.220   9.117  0.1408 -0.1417  0.1058
    1W        W66127  27.954   9.315   8.933  0.2416 -0.0486 -0.0393
    1W        W66128  27.455   5.029   7.832 -0.2357 -0.1191 -0.0266
    1W        W66129  16.698   2.102   2.979  0.3119  0.1910 -0.0902
    1W        W66130   3.145  11.773   0.446  0.1606 -0.2824 -0.1500
    1W        W66131   2.449  16.401   0.584  0.1459  0.1680 -0.0150
    1W        W66132   1.490  21.548   6.561  0.1683  0.0106  0.0021
    1W        W66133  20.929  18.143   7.220  0.0812 -0.0748 -0.5144
    1W        W66134   2.731  22.375   8.512  0.0314 -0.2864  0.0657
    1W        W66135  25.598  26.722   2.138  0.4247 -0.0253  0.0121
    1W        W66136   8.226   1.262   2.915  0.0893  0.0376 -0.0014
    1W        W66137  21.522  14.503   8.495 -0.1554  0.0512 -0.0435
    1W        W66138  18.787  17.735   0.363  0.3409  0.2292  0.2311
    1W        W66139  25.978  27.122   7.942  0.0480 -0.0824  0.0214
    1W        W66140   3.764  11.898   8.169  0.0502  0.3378 -0.1806
    1W        W66141   9.883   6.095   3.509  0.0759  0.1234 -0.1925
    1W        W66142   4.080  10.882   1.981 -0.1819  0.0606 -0.0684
    1W        W66143  14.884  21.007   1.324  0.1227 -0.1439 -0.0399
    1W        W66144  12.266  20.604   1.028 -0.1692 -0.0252  0.1426
    1W        W66145  28.324   2.941   2.810 -0.0785  0.0165 -0.2253
    1W        W66146  20.006  23.455   1.691 -0.0223  0.0747  0.0505
    1W        W66147  28.434  21.792   6.094 -0.2182  0.0820  0.0667
    1W        W66148  12.254   2.926   2.877 -0.0424 -0.0752 -0.0351
    1W        W66149  19.698  17.455   2.048 -0.1814  0.0266 -0.2682
    1W        W66150  29.410  21.081   1.219  0.1330 -0.2497 -0.0153
    1W        W66151   8.717  23.279   6.837 -0.2549 -0.0246  0.1902
    1W        W66152  12.731  25.597   7.009  0.3646  0.3913 -0.1766
    1W        W66153  22.021  26.013   7.169 -0.1184  0.2885 -0.0950
    1W        W66154  25.343  19.977   8.072  0.1321  0.1971  0.0780
    1W        W66155   4.531  23.059   0.645  0.0484  0.1728  0.2910
    1W        W66156  29.401  26.762   2.921 -0.0632  0.0116  0.0773
    1W        W66157   5.341  25.405   1.916  0.2200 -0.1895  0.0935
    1W        W66158   0.451   2.223   8.600  0.2590 -0.1896  0.0204
    1W        W66159  22.551  29.062   3.253 -0.1238 -0.1893  0.0494
    1W        W66160  30.155  29.927   3.772 -0.0903 -0.3781 -0.1491
    1W        W66161  26.900  22.291   1.491 -0.0514 -0.1952  0.2099
    1W        W66162  23.475  21.526   1.062  0.3533  0.0338  0.0165
    1W        W66163   6.304  17.393   2.210 -0.1604  0.3150 -0.1101
    1W        W66164   1.283  22.361   6.783  0.0412  0.2546  0.1990
    1W        W66165  18.912  27.382   7.282  0.1913 -0.0240 -0.0487
    1W        W66166  29.124   0.730   0.304  0.3423  0.0036 -0.0219
    1W        W66167   4.046  20.592   9.359 -0.2059 -0.2255 -0.2313
    1W        W66168   2.729  23.831   6.199 -0.0646 -0.4509 -0.0784
    1W        W66169  29.488  27.102   1.043  0.0079  0.3094 -0.2611
    1W        W66170  12.957  17.578   9.045 -0.0412  0.1355 -0.0780
    1W        W66171  28.277  17.738   6.660 -0.1625 -0.3369 -0.2169
    1W        W66172   0.540  13.407   5.963  0.0742  0.0283 -0.2319
    1W        W66173  12.483  28.356   8.258 -0.1710  0.2033  0.4518
    1W        W66174  12.090   8.522   3.300  0.2706  0.1624  0.1010
    1W        W66175  25.471  28.160   8.260 -0.0028  0.0970 -0.0361
    1W        W66176  23.241  20.958   0.971  0.1390  0.1354  0.0961
    1W        W66177  13.972  19.723   0.461 -0.5507 -0.0393  0.0174
    1W        W66178   8.578   7.472   3.590  0.2439  0.1677 -0.3989
    1W        W66179  22.803   0.833   9.268  0.1646  0.1188  0.0505
    1W        W66180  22.309  10.194   0.036  0.1785 -0.1319  0.0217
    1W        W66181   8.437  24.260   7.008 -0.2222  0.2357  0.2008
    1W        W66182  19.702  20.437   8.176  0.3281  0.3871  0.1748
    1W        W66183  12.122   0.957   8.525 -0.3239  0.0777 -0.2721
    1W        W66184   6.613   2.814   0.586 -0.3013 -0.0008 -0.3202
    1W        W66185   1.796  13.699   5.983 -0.0156 -0.2466  0.2307
    1W        W66186   1.152   1.350   1.852  0.0101  0.1409 -0.0576
    1W        W66187  27.307  21.601   9.057  0.1639  0.2526  0.0152
    1W        W66188  10.373   6.301   2.712  0.4706  0.0986 -0.2581
    1W        W66189  20.945   2.828   6.663 -0.1981  0.0867 -0.3156
    1W        W66190  24.604  23.324   0.563  0.1973  0.0216 -0.0066
    1W        W66191  15.138  27.725   7.737 -0.0613 -0.1254  0.0686
    1W        W66192   4.342  15.082   1.944 -0.0872 -0.1322  0.1813
    1W        W66193   6.747  27.324   8.731 -0.2717 -0.5774 -0.1197
    1W        W66194  10.082  16.851   0.325 -0.1047 -0.2320 -0.0720
    1W        W66195  12.941  15.503   8.263 -0.3169 -0.0350  0.3211
    1W        W66196   6.838  10.097   1.440 -0.1790 -0.0956 -0.0449
    1W        W66197  16.965   4.955   2.646 -0.1467  0.1499 -0.0478
    1W        W66198  14.991   1.931   9.149 -0.2775  0.3883 -0.4014
    1W        W66199   0.145  10.263   8.365 -0.1382  0.0307 -0.3521
    1W        W66200  28.911  19.284   7.268 -0.1369  0.3082 -0.1998
    1W        W66201  12.449  19.954   1.442 -0.0329 -0.1026  0.0118
    1W        W66202  11.854  11.171   9.291 -0.1268  0.0512  0.1354
    1W        W66203   8.118   4.759   9.370 -0.1648 -0.1110  0.0527
    1W        W66204   0.271  15.524   1.289 -0.1333  0.3655 -0.0495
    1W        W66205  27.699  22.639   6.940  0.1838 -0.1708  0.4682
    1W        W66206   4.588  26.774   7.624  0.0472  0.1838  0.0362
    1W        W66207  10.586  15.459   1.485 -0.1062  0.0112 -0.0462
    1W        W66208  10.339  19.369   7.113  0.2401 -0.4375 -0.1103
    1W        W66209  16.640   4.058   8.412  0.0097  0.1272  0.1193
    1W        W66210  16.148  10.997   8.378  0.0763  0.2825  0.1494
    1W        W66211  16.047  10.856   1.022  0.1868  0.0336  0.1971
    1W        W66212   3.776  10.592   0.141  0.1785  0.1557 -0.0291
    1W        W66213  13.990  22.337   2.042  0.0141 -0.1642 -0.1517
    1W        W66214  15.205  19.359   8.734  0.0680 -0.0689 -0.1284
    1W        W66215  18.753  11.385   0.198 -0.0332 -0.4980  0.1591
    1W        W66216  25.169   4.803   1.575  0.3108 -0.2015 -0.3390
    1W        W66217   1.266  22.622   9.394  0.0098 -0.4836 -0.2790
    1W        W66218  25.430  29.043   8.238  0.2684  0.1250 -0.1931
    1W        W66219   5.310  18.471   1.325  0.2374  0.1724  0.1143
    1W        W66220   1.338   8.024   8.088 -0.3086  0.0664  0.0812
    1W        W66221  26.605   3.665   6.661 -0.2538  0.0829  0.2485
    1W        W66222   1.592  23.992   8.666 -0.3232 -0.2213  0.1224
    1W        W66223  11.336  18.624   1.749 -0.3028  0.1778 -0.0975
    1W        W66224   8.414  16.710   2.312  0.0959  0.0373 -0.2257
    1W        W66225  22.599   1.468   1.143  0.0642  0.1500 -0.1020
    1W        W66226  16.578   1.576   8.600  0.0803 -0.0353  0.1768
    1W        W66227   8.462   8.777   3.005 -0.1477  0.0883  0.0033
    1W        W66228  10.390  19.327   1.326 -0.0755  0.0203 -0.0558
    1W        W66229  28.570  13.085   7.316 -0.1229 -0.3106  0.1372
    1W        W66230  29.308  29.398   2.325  0.0300  0.2046 -0.1786
    1W        W66231  14.664   3.013   3.603  0.0932  0.1711 -0.0624
    1W        W66232  19.818   6.012   0.453  0.1426  0.0388 -0.2794
    1W        W66233  28.249   6.735   8.909  0.1276 -0.0162  0.0931
    1W        W66234   4.968  23.135   6.735  0.1643 -0.2638  0.3624
    1W        W66235   2.786   7.885   0.096  0.0304 -0.1088  0.1920
    1W        W66236  17.876  23.011   0.363  0.1916  0.0932 -0.0007
    1W        W66237   8.807   6.689   0.758  0.1446  0.2065 -0.1523
    1W        W66238  21.174   9.414   0.970 -0.0256 -0.0825 -0.2181
    1W        W66239  18.491   6.114   0.051 -0.1224  0.2775  0.1035
    1W        W66240   4.015  12.622   8.436 -0.0756  0.3165 -0.0861
    1W        W66241  20.320  26.151   7.563  0.0792 -0.1161 -0.4036
    1W        W66242  22.198  16.243   6.573  0.1648  0.0533  0.1250
    1W        W66243   7.096  29.776   1.430 -0.0163  0.0662  0.4531
    1W        W66244   2.062  20.146   0.730  0.0624 -0.2027 -0.0491
    1W        W66245  21.862  26.484   6.967 -0.3965 -0.1347 -0.2044
    1W        W66246  22.993  22.593   9.074  0.1150 -0.0522  0.2025
    1W        W66247   0.352  19.079   6.842 -0.1052 -0.0440 -0.0280
    1W        W66248  11.058  20.268   9.250 -0.0455  0.0124 -0.2671
    1W        W66249  14.175  23.354   0.251 -0.3097  0.0617  0.1083
    1W        W66250   4.074  18.600   9.286 -0.1482 -0.1462  0.1023
    1W        W66251   4.080   8.604   3.133 -0.0966 -0.1907  0.1256
    1W        W66252  26.778  13.991   1.318 -0.2494  0.1364  0.1119
    1W        W66253   1.193   7.075   0.256  0.1257 -0.0121  0.3616
    1W        W66254  20.707  24.926   9.070  0.0472 -0.1291 -0.0533
    1W        W66255   4.319  21.821   7.932 -0.0165  0.1302  0.1241
    1W        W66256  28.962  27.260   1.930  0.0003  0.0592 -0.0202
    1W        W66257  15.522  16.162   2.009  0.2104 -0.2338 -0.0909
    1W        W66258  26.346   4.791   1.964  0.1248 -0.1511 -0.1944
    1W        W66259  23.159   9.560   7.567  0.0974  0.2777  0.0368
    1W        W66260   8.385  12.095   0.763  0.1183  0.1313  0.2674
    1W        W66261   9.672   1.329   1.516  0.0939  0.1008 -0.1266
    1W        W66262   2.188   1.750   8.084 -0.1604 -0.2779  0.2153
    1W        W66263   7.119   9.239   8.334  0.3583 -0.2184  0.2264
    1W        W66264  21.019  27.794   0.656  0.2461  0.1227 -0.0752
    1W        W66265  13.171  10.690   1.856  0.2964 -0.1233  0.1570
    1W        W66266   6.568   6.140   2.194 -0.0658 -0.0480 -0.2364
    1W        W66267  12.573  15.181   6.972 -0.0679 -0.1280  0.0492
    1W        W66268  19.697   8.830   7.012  0.4489 -0.1298  0.0174
    1W        W66269  24.526   5.610   8.673 -0.0119  0.0126  0.0136
    1W        W66270  24.049  17.969   7.943 -0.0189 -0.1795 -0.1809
    1W        W66271   0.089   5.776   0.352 -0.0951  0.0138 -0.1049
    1W        W66272  24.398  21.476   0.377 -0.1142  0.0729  0.2119
    1W        W66273   5.672  15.970   1.930 -0.1807 -0.2433 -0.0873
    1W        W66274  17.143  27.219   0.582 -0.1137  0.4109  0.2212
    1W        W66275  20.047  21.627   1.258  0.0030  0.3044 -0.0509
    1W        W66276  22.214  27.505   7.367  0.2498 -0.2032 -0.1404
    1W        W66277  18.695  25.710   7.670 -0.0261 -0.0827  0.0235
    1W        W66278  21.596  19.124   6.144 -0.0308 -0.2452 -0.0453
    1W        W66279  25.600  17.853   1.893 -0.0406  0.1883  0.0416
    1W        W66280  15.049   2.775   1.633 -0.0285 -0.2130  0.2930
    1W        W66281   5.092   3.411   7.447 -0.0111  0.0915  0.1546
    1W        W66282  29.247  14.837   1.725 -0.0974  0.0692  0.1046
    1W        W66283  23.453   1.826   8.252  0.2923 -0.2067  0.1480
    1W        W66284  28.605  16.210   1.495 -0.2627 -0.2886 -0.1242
    1W        W66285  25.594  14.460   5.398 -0.1006 -0.0602  0.3537
    1W        W66286  12.446  24.568   6.414 -0.1235 -0.1131 -0.0290
    1W        W66287  29.360  11.171   6.419 -0.2392  0.2763 -0.1417
    1W        W66288  26.219  20.184   0.198 -0.3592  0.2409 -0.3287
    1W        W66289   6.347  18.556   7.619 -0.2928 -0.2473 -0.0026
    1W        W66290   0.289  14.859   6.312  0.1053  0.1693 -0.1092
    1W        W66291   4.294  16.538   5.459  0.1710  0.0787  0.0203
    1W        W66292  28.432  10.413   0.757  0.3887 -0.1560  0.4200
    1W        W66293  26.902  11.104   7.235 -0.1711  0.0830 -0.3631
    1W        W66294  24.955   6.513   7.023 -0.1996 -0.0254 -0.1675
    1W        W66295  18.825   3.817   1.040 -0.0409  0.0205 -0.0107
    1W        W66296  19.257  19.412   7.725 -0.4544 -0.5413 -0.1825
    1W        W66297  25.398   9.965   7.573  0.0753  0.0526 -0.0251
    1W        W66298  23.538  11.242   1.344 -0.0993  0.3570  0.4615
    1W        W66299  10.767  29.036   7.560 -0.0558  0.0797  0.0526
    1W        W66300  18.286   3.731   1.074  0.0857  0.3502  0.1726
    1W        W66301   6.689   6.999   7.891  0.0226  0.2155  0.1312
    1W        W66302  17.606  29.948   2.080 -0.2887  0.1381 -0.0538
    1W        W66303  24.636  23.618   9.016 -0.0390 -0.2600  0.0343
    1W        W66304   5.360   8.379   3.091 -0.1851 -0.1424 -0.0117
    1W        W66305  28.115  21.102   1.661 -0.0401  0.1037 -0.0025
    1W        W66306  23.026   2.630   2.241  0.1908 -0.0433 -0.2198
    1W        W66307  26.217   9.816   1.721  0.2791  0.0498  0.6538
    1W        W66308   2.739   2.883   7.542  0.0182 -0.4369  0.3302
    1W        W66309   2.533  21.397   5.985  0.0402  0.1039 -0.0854
    1W        W66310  20.440  18.581   1.931  0.1979 -0.0703 -0.1644
    1W        W66311  23.893  26.400   7.993 -0.1397 -0.2697  0.0595
    1W        W66312   9.280   2.717   7.788 -0.2279  0.0559  0.2219
    1W        W66313  12.400  14.015   8.857  0.2900 -0.2558  0.1347
    1W        W66314  23.841   4.057   2.061  0.1356  0.0340 -0.0783
    1W        W66315  25.175   1.187   1.321  0.0349 -0.1702  0.0274
    1W        W66316   9.343  11.819   2.783  0.1638  0.0910  0.2065
    1W        W66317  24.059  18.110   6.648  0.0888 -0.0876  0.0569
    1W        W66318  20.676  26.087   1.123  0.0563 -0.0631 -0.0090
    1W        W66319  23.798  24.161   2.869 -0.2686  0.0820 -0.0768
    1W        W66320   5.333  23.186   0.107  0.4099 -0.3181 -0.0771
    1W        W66321  22.997   0.410   8.144  0.0241 -0.0741  0.0075
    1W        W66322   5.668  12.566   0.487  0.2516  0.0164 -0.2909
    1W        W66323  16.786   0.293   8.122  0.1049  0.2792  0.1778
    1W        W66324   3.513  10.209   0.233 -0.0321 -0.2378  0.1191
    1W        W66325  20.134   5.816   2.655 -0.2842  0.2082  0.1475
    1W        W66326   2.887  17.871   0.737  0.1011 -0.0218 -0.1785
    1W        W66327   0.852  14.457   8.724 -0.0332 -0.5467 -0.1147
    1W        W66328  18.180  20.360   1.893  0.1610  0.1019  0.1444
    1W        W66329   5.740  19.840   8.054 -0.0683  0.2464 -0.3168
    1W        W66330  27.511  27.832   1.621 -0.1947  0.0357  0.3211
    1W        W66331  20.370   9.303   2.652 -0.2696  0.0828  0.0788
    1W        W66332  25.344  27.479   0.103  0.1264  0.3787  0.2883
    1W        W66333  18.775   1.222   7.104 -0.2827 -0.2087 -0.2829
    1W        W66334  11.477   8.602   1.563 -0.1657 -0.0727  0.0403
    1W        W66335  17.869   7.233   9.159 -0.1329 -0.2395  0.0323
    1W        W66336   1.220  10.807   0.337 -0.1060 -0.1462 -0.2867
    1W        W66337  28.775   5.810   1.689  0.3102 -0.0539 -0.0618
    1W        W66338  28.613  22.735   0.041  0.3609  0.0896 -0.2093
    1W        W66339   4.903  25.521   8.601 -0.0759 -0.2674  0.0196
    1W        W66340   5.726  14.883   6.907 -0.0669  0.0677 -0.1005
    1W        W66341   0.665  28.867   0.188 -0.3498 -0.1216 -0.3961
    1W        W66342  15.084   1.873   8.120 -0.0573 -0.1052 -0.0706
    1W        W66343  12.264   8.412   1.806 -0.0345  0.0466 -0.0670
    1W        W66344  17.543  22.312   9.024  0.0105  0.3757  0.0820
    1W        W66345   9.214   3.742   0.535  0.2315 -0.0356 -0.0974
    1W        W66346  12.067  13.814   1.562 -0.0342 -0.0235 -0.2769
    1W        W66347  25.090   7.398   7.379  0.0458  0.0363  0.1243
    1W        W66348  18.992  24.757   1.259 -0.1451  0.0085 -0.0510
    1W        W66349   3.729  21.002   0.722  0.3118  0.0803  0.1574
    1W        W66350   3.672   4.391   7.935  0.1724 -0.0922  0.0735
    1W        W66351  13.417  21.315   8.962 -0.2181 -0.1650 -0.0496
    1W        W66352   6.437  11.113   9.161  0.3467  0.0185 -0.0340
    1W        W66353   8.396   7.741   8.210 -0.1594  0.0689  0.3472
    1W        W66354  26.570  20.498   0.394  0.1110 -0.2015 -0.4886
    1W        W66355  28.560   8.180   1.962  0.2396  0.2649  0.0692
    1W        W66356  28.697  13.699   8.687  0.1304  0.2526  0.0528
    1W        W66357  19.758   9.052   7.576  0.1548 -0.0658 -0.2085
    1W        W66358   0.977  20.004   9.023 -0.1084  0.2871  0.3265
    1W        W66359  11.633   8.987   3.762 -0.1244  0.0778 -0.1195
    1W        W66360  12.663  13.310   0.050  0.0114  0.1038  0.0308
    1W        W66361  27.217  13.516   0.447  0.3635 -0.0603  0.0686
    1W        W66362  24.605  18.952   7.523  0.1581  0.0587 -0.1809
    1W        W66363  10.643  11.277   1.239  0.0346  0.0453 -0.1762
    1W        W66364  26.844   5.312   0.811 -0.0280 -0.1981  0.1792
    1W        W66365  29.032  25.428   7.311  0.1086  0.1835 -0.1798
    1W        W66366  16.589  29.382   0.257  0.0623  0.2155  0.0307
    1W        W66367  12.695  22.794   7.666  0.0158 -0.1339 -0.1072
    1W        W66368  25.433   7.752   1.337 -0.2820  0.2476 -0.0233
    1W        W66369  23.272   1.292   0.726 -0.1807 -0.0617 -0.1114
    1W        W66370  19.144  26.778   8.209 -0.1085  0.1036  0.3184
    1W        W66371  19.853  18.936   6.222 -0.2442 -0.1094 -0.0315
    1W        W66372   3.600  28.951   0.689 -0.2852 -0.0009  0.1101
    1W        W66373   0.643  29.261   9.111  0.3642 -0.0208  0.0517
    1W        W66374  11.131  12.301   0.461 -0.1824  0.2232  0.2490
    1W        W66375  25.731  17.928   2.341 -0.1608  0.0695 -0.2318
    1W        W66376   1.312  29.672   7.755 -0.1487  0.3200  0.0111
    1W        W66377   2.425  16.228   1.504  0.0406 -0.0695  0.0020
    1W        W66378  12.710  21.537   6.801 -0.0016  0.0471 -0.0750
    1W        W66379   4.007  11.780   0.418 -0.3501 -0.0168 -0.0256
    1W        W66380   0.495   9.879   8.373  0.0009  0.1225  0.1150
    1W        W66381   3.391  12.739   1.520 -0.0075 -0.0447  0.1317
    1W        W66382  21.523   7.539   2.806 -0.0816  0.0581 -0.1874
    1W        W66383  20.760  14.631   1.818  0.2011 -0.0682  0.0205
    1W        W66384   4.936  17.687   0.529 -0.0171 -0.0031  0.1977
    1W        W66385  24.399  22.829   0.345 -0.1016  0.1817 -0.3578
    1W        W66386  12.125   2.789   0.342  0.1960  0.0958 -0.3520
    1W        W66387  22.487  23.554   0.503  0.2947  0.0647 -0.1733
    1W        W66388  15.009  18.671   1.221 -0.1360 -0.0139 -0.0092
    1W        W66389  28.160  23.600   1.666  0.3996  0.1478 -0.0694
    1W        W66390  22.827  21.060   1.697  0.4230 -0.3317  0.2174
    1W        W66391  13.196   5.674   3.125 -0.0132  0.0191 -0.0461
    1W        W66392  10.961  24.525   8.002 -0.1773  0.1051  0.0963
    1W        W66393  19.720  20.031   2.055  0.0337  0.0162  0.3453
    1W        W66394  15.988  29.387   7.653  0.0838  0.1837 -0.2073
    1W        W66395   2.240  14.145   5.931  0.2447 -0.1154  0.3160
    1W        W66396  29.786   9.806   8.263 -0.1277  0.0262 -0.2485
    1W        W66397  18.368   5.149   0.767  0.1399 -0.0733 -0.1701
    1W        W66398   1.639   5.814   0.443  0.0734 -0.0484  0.0548
    1W        W66399  18.970  18.559   6.220 -0.2409 -0.1527 -0.0327
    1W        W66400   3.612  22.622   6.273 -0.0429  0.1122 -0.2447
    1W        W66401  19.719  13.873   7.361  0.1889  0.2158  0.1661
    1W        W66402   5.637  29.798   0.821 -0.3073  0.1741 -0.0882
    1W        W66403   8.009  19.387   2.758 -0.1194 -0.0224  0.1820
    1W        W66404   9.147  24.886   0.228 -0.0696 -0.0954 -0.1525
    1W        W66405  11.726  22.845   1.102  0.2551 -0.1616 -0.0483
    1W        W66406   7.562   0.488   3.591 -0.1956  0.0566  0.1144
    1W        W66407  28.814  21.970   7.405  0.0959 -0.2644 -0.0116
    1W        W66408   4.499   1.766   0.925 -0.1357  0.0746 -0.1783
    1W        W66409  12.608  27.815   1.150 -0.2551  0.2165  0.1042
    1W        W66410   8.666   9.315   3.871  0.0026  0.1338  0.3145
    1W        W66411  12.556  23.848   8.716 -0.0560 -0.2438  0.0512
    1W        W66412  25.493  13.758   1.697  0.2171 -0.0725  0.1824
    1W        W66413   4.437   7.414   8.911  0.2539 -0.0014  0.0763
    1W        W66414  15.037  22.773   1.622 -0.5148 -0.2845  0.0156
    1W        W66415  28.780   4.524   7.223 -0.2171 -0.0228 -0.0068
    1W        W66416   9.956  21.391   7.128 -0.0668  0.2558 -0.0922
    1W        W66417   5.897  12.039   8.501 -0.0005  0.0149 -0.0871
    1W        W66418  14.209   5.572   1.896  0.0194  0.0424 -0.0394
    1W        W66419   4.969  27.159   7.710  0.2624 -0.1770  0.0126
    1W        W66420  22.506  27.960   8.951  0.2590  0.0757  0.2426
    1W        W66421  21.529  25.421   6.113  0.2356 -0.2643  0.0941
    1W        W66422  20.937  21.979   2.966  0.0756  0.0190 -0.2132
    1W        W66423  22.591  23.940   7.961  0.2318  0.0543 -0.4673
    1W        W66424  12.504  22.979   6.831  0.0354  0.1937 -0.3417
    1W        W66425  18.779  19.786   1.757 -0.1084 -0.2316 -0.0538
    1W        W66426  27.935  20.039   7.872 -0.2613 -0.3444 -0.2946
    1W        W66427  25.846  10.199   8.962 -0.1916  0.3827 -0.0488
    1W        W66428  19.391  30.084   2.608  0.0400  0.1462 -0.1270
    1W        W66429  14.001  25.820   7.269  0.2397 -0.0516  0.1375
    1W        W66430  17.106  18.614   7.555 -0.2011  0.2106  0.1235
    1W        W66431   3.786  10.469   2.056  0.1840  0.2822  0.1251
    1W        W66432   8.218  22.103   7.337  0.0656  0.2477 -0.0891
    1W        W66433  27.011   1.922   8.223  0.1683  0.2378  0.2663
    1W        W66434   8.845   7.835   8.379  0.1837  0.0020 -0.0441
    1W        W66435  26.239  10.403   1.562 -0.2030  0.4520 -0.1371
    1W        W66436  19.876  24.739   2.266  0.1503  0.3900 -0.0052
    1W        W66437   2.722   0.159   1.467  0.1513  0.1894 -0.1422
    1W        W66438   1.388  15.053   5.474 -0.1791  0.1813 -0.1317
    1W        W66439   1.749   1.488   0.519 -0.1317  0.1243  0.3467
    1W        W66440  13.944   9.037   7.275 -0.1595  0.0683  0.0488
    1W        W66441  15.096  26.618   7.853  0.1866  0.0584 -0.1127
    1W        W66442   3.544  20.439   4.778  0.1290  0.1406  0.0720
    1W        W66443  18.617  26.556   7.369 -0.0700  0.1385  0.1561
    1W        W66444  20.532  13.265   1.791  0.1711  0.1747 -0.1251
    1W        W66445   7.708  24.306   8.876  0.2374 -0.1266 -0.0979
    1W        W66446  28.319   1.677   6.467  0.1673 -0.0912 -0.0725
    1W        W66447   1.120   6.878   9.190 -0.1900  0.0048  0.0956
    1W        W66448  13.244   7.664   7.450 -0.0322  0.1586  0.1035
    1W        W66449   0.318  17.802   0.609  0.1472  0.1771 -0.1312
    1W        W66450  27.069  11.590   7.393 -0.0122  0.2017  0.2597
    1W        W66451   1.748   7.463   7.314 -0.0371 -0.1265 -0.0837
    1W        W66452  20.096  10.055   7.591  0.2418 -0.0629 -0.0397
    1W        W66453  22.557  10.534   7.352 -0.2765  0.1395  0.1091
    1W        W66454   5.082  14.582   0.741  0.0796  0.0071  0.0581
    1W        W66455  16.256   6.836   3.335 -0.1808 -0.1844 -0.0475
    1W        W66456   8.234  22.162   6.796 -0.1517  0.0790 -0.0429
    1W        W66457  28.247  11.110   2.066 -0.4511 -0.0954  0.0238
    1W        W66458   1.185  25.143   5.763 -0.0179  0.0427  0.1042
    1W        W66459  23.045  14.079   7.172  0.1710 -0.2328  0.2599
    1W        W66460   4.001  25.084   8.202  0.1449  0.2470  0.0216
    1W        W66461  17.774  28.719   0.358 -0.0954  0.0615  0.0828
    1W        W66462  13.709  29.046   7.370  0.4018 -0.0471  0.2558
    1W        W66463  28.158  11.363   6.688  0.2799  0.1479  0.0826
    1W        W66464  21.571  21.443   8.967 -0.1221 -0.0638 -0.0082
    1W        W66465   1.939  28.002   8.176  0.4025 -0.0719  0.2930
    1W        W66466  24.353  26.777   2.285  0.3748  0.1482 -0.2967
    1W        W66467  27.858  25.001   6.792 -0.1436  0.1015 -0.1249
    1W        W66468  18.799  12.584   8.317  0.0023 -0.0670  0.0216
    1W        W66469   5.859  13.544   1.926  0.1137  0.0837  0.1443
    1W        W66470  28.173   5.544   1.931 -0.0541  0.0421  0.0668
    1W        W66471   8.885   2.066   8.956  0.0232 -0.0484  0.0176
    1W        W66472  17.639   5.977   3.862 -0.1441 -0.1866  0.0037
    1W        W66473  23.737  19.947   0.911 -0.4139  0.0390  0.0023
    1W        W66474  24.822  20.972   7.917 -0.1835  0.0123 -0.4451
    1W        W66475  19.959  13.528   7.113  0.1677 -0.1738 -0.0783
    1W        W66476  24.950  20.781   7.468 -0.1101  0.3728  0.0914
    1W        W66477  28.067  25.860   0.411 -0.4026  0.2541 -0.1113
    1W        W66478   3.921   9.569   1.104 -0.1045  0.0838 -0.1589
    1W        W66479  12.875  25.606   2.110  0.2538 -0.0340 -0.2798
    1W        W66480   2.927  22.119   0.740 -0.1538 -0.1092 -0.2304
    1W        W66481  28.458  18.947   2.090  0.1233  0.0070  0.2395
    1W        W66482  11.753  19.390   1.632  0.1337 -0.0561  0.0019
    1W        W66483   3.414  10.062   8.775 -0.1547  0.0202  0.0230
    1W        W66484  26.240  13.586   6.379  0.2141 -0.0790  0.0027
    1W        W66485  27.716  26.607   1.429 -0.1985 -0.0052 -0.0682
    1W        W66486  18.874  21.996   1.656  0.2656  0.1615 -0.1525
    1W        W66487   1.821  11.227   7.007  0.3881  0.6470 -0.0252
    1W        W66488   9.139  22.091   6.366  0.0884  0.6141  0.1549
    1W        W66489   8.459   6.020   1.239 -0.4510  0.1137 -0.1821
    1W        W66490  25.160  30.083   1.015 -0.4093 -0.1590 -0.0966
    1W        W66491  18.226  19.423   7.621 -0.0764 -0.0827 -0.1118
    1W        W66492  14.373   9.255   1.223 -0.0710 -0.1681  0.1869
    1W        W66493  24.870  17.345   1.047 -0.3770  0.0962 -0.1839
    1W        W66494  25.794  21.865   0.271 -0.0379 -0.1564  0.1659
    1W        W66495   2.178   5.153   0.254 -0.0446  0.1245 -0.1341
    1W        W66496   5.298  29.149   2.811  0.3449  0.2296 -0.0626
    1W        W66497  28.644  15.596   6.624  0.3866 -0.1387 -0.1635
    1W        W66498  21.379   0.319   7.060  0.2599  0.4003  0.1732
    1W        W66499  21.298  25.826   1.299 -0.2528  0.0880  0.1310
    1W        W66500   2.325  15.031   1.336  0.2449 -0.0245  0.2766
    1W        W66501   5.469  21.363   1.798  0.1286  0.0099 -0.1398
    1W        W66502   6.075  24.805   2.374  0.1443 -0.5217 -0.1190
    1W        W66503  21.942   0.606   1.990  0.0966 -0.2323  0.0103
    1W        W66504   4.546   5.162   1.696 -0.0075  0.0392  0.1564
    1W        W66505  25.662  29.108   8.677  0.0081 -0.0483  0.0497
    1W        W66506  27.618  16.694   5.388  0.0494 -0.0403  0.0679
    1W        W66507  26.134   3.594   0.365  0.0899  0.3021  0.0829
    1W        W66508  27.899  25.756   6.370  0.1569 -0.4728  0.0123
    1W        W66509  18.218  20.875   8.186  0.0793  0.2951 -0.1879
    1W        W66510   5.005  13.327   6.831 -0.0543 -0.1518  0.0250
    1W        W66511  10.199  17.569   2.461  0.3037  0.0895  0.0674
    1W        W66512  23.307  15.030   0.648  0.0425  0.3199  0.2443
    1W        W66513  26.725  11.154   8.882 -0.0679  0.0775 -0.0476
    1W        W66514  16.164  13.477   8.881  0.0725  0.0667  0.0558
    1W        W66515   8.433   6.257   8.219  0.2576  0.1488 -0.0454
    1W        W66516   9.927  20.829   0.346 -0.0774  0.0505 -0.1509
    1W        W66517   2.080  16.849   8.681  0.2394  0.0565 -0.1051
    1W        W66518   4.566  28.978   3.034 -0.1108 -0.0479 -0.3605
    1W        W66519  11.219  13.410   7.183  0.0854  0.0368  0.1165
    1W        W66520   3.534   4.604   1.930 -0.1095 -0.1940 -0.0795
    1W        W66521  27.249  13.023   7.677 -0.1523  0.0688 -0.2473
    1W        W66522  10.858  16.578   0.670  0.2274  0.2790 -0.0255
    1W        W66523  25.881  23.879   6.919  0.3450  0.2521  0.0131
    1W        W66524  23.050   7.685   7.262  0.2220  0.1485 -0.2745
    1W        W66525  15.077  17.719   9.365 -0.0853 -0.0713  0.1944
    1W        W66526  14.724   8.709   8.387 -0.4069  0.0335  0.1954
    1W        W66527  17.828   7.201   0.609 -0.3688  0.0130  0.2267
    1W        W66528  29.089  16.849   5.373  0.1702 -0.2669 -0.1441
    1W        W66529  17.848  23.271   9.170  0.0072 -0.1478 -0.0487
    1W        W66530   2.775  20.804   1.063  0.0182 -0.0566  0.2321
    1W        W66531  22.952   9.302   1.856  0.0305 -0.3057  0.1480
    1W        W66532  23.417  11.794   7.951 -0.0564 -0.0943  0.2042
    1W        W66533  22.186  26.242   6.721 -0.3101 -0.0360  0.0750
    1W        W66534   4.877   7.469   2.780  0.0306 -0.0066 -0.1737
    1W        W66535   6.460  17.548   1.707  0.0687 -0.3608 -0.0864
    1W        W66536  23.359  27.632   8.526 -0.2531 -0.0676 -0.0568
    1W        W66537  15.794  27.802   0.959 -0.0475  0.3637  0.3485
    1W        W66538   6.947  18.536   1.601  0.1168 -0.1111  0.2621
    1W        W66539  15.286  12.708   1.327 -0.0378  0.2044 -0.2994
    1W        W66540  23.118  12.111   8.286  0.0489  0.0206 -0.1864
    1W        W66541  29.649   7.731   1.944  0.0438 -0.1818 -0.0266
    1W        W66542  28.808   3.909   6.841 -0.0912  0.0389  0.0194
    1W        W66543  26.236  12.543   1.566  0.0975 -0.0091 -0.3069
    1W        W66544   6.160  17.719   7.918  0.2022  0.0868 -0.3300
    1W        W66545  13.099  13.274   6.872 -0.0899 -0.1150 -0.1430
    1W        W66546   6.968  17.469   0.221 -0.0487  0.0918  0.3395
    1W        W66547   3.527   6.193   8.433 -0.2294  0.0910 -0.0388
    1W        W66548  24.176  14.572   9.088  0.0130 -0.2282 -0.2522
    1W        W66549  10.775  24.160   6.286  0.4564 -0.2007 -0.0311
    1W        W66550  22.472  21.970   1.805 -0.0169  0.0657  0.3759
    1W        W66551  21.052   2.229   8.180  0.0653  0.4102  0.0829
    1W        W66552   6.594  30.045   8.714 -0.3634 -0.2225  0.1506
    1W        W66553  24.284  12.264   1.008 -0.0133 -0.1625  0.0843
    1W        W66554   0.618  28.128   1.275 -0.0766  0.1092  0.1593
    1W        W66555  16.360  28.781   8.096 -0.2255 -0.0359 -0.2653
    1W        W66556  19.233  25.111   7.606  0.1181  0.0610  0.0736
    1W        W66557  13.673  16.438   7.163 -0.1386 -0.1486 -0.0229
    1W        W66558  11.738  23.047   7.147 -0.0980 -0.0972 -0.3362
    1W        W66559   1.816  18.728   5.861  0.1283 -0.0882  0.2542
    1W        W66560  13.549  22.432   1.623 -0.2266 -0.0190 -0.1693
    1W        W66561  22.614  17.815   8.472 -0.2920 -0.3236  0.0670
    1W        W66562  24.322  12.774   2.504 -0.2937  0.0846  0.1228
    1W        W66563  26.772   4.975   7.069 -0.1053 -0.2065 -0.0667
    1W        W66564  24.472   5.481   2.104 -0.0713 -0.1070  0.0517
    1W        W66565  19.214   5.254   2.206  0.1844  0.2292 -0.0608
    1W        W66566  21.572   4.854   7.800 -0.0327  0.0229 -0.0117
    1W        W66567   9.039  21.981   1.775  0.0050 -0.0432  0.0103
    1W        W66568   3.833   4.190   6.390 -0.3341  0.1015  0.1388
    1W        W66569  11.460  19.982   0.061  0.0912  0.0664  0.2973
    1W        W66570  26.853   9.027   2.336 -0.1616  0.1482 -0.1933
    1W        W66571  19.831  16.165   1.630 -0.1907 -0.2107  0.2846
    1W        W66572   5.500   9.501   2.338 -0.0096 -0.2112  0.0733
    1W        W66573   9.041  26.029   1.830  0.0501  0.0254  0.0389
    1W        W66574  15.682   2.654   1.808  0.2734  0.2043 -0.1385
    1W        W66575  20.777  14.133   8.696  0.0374  0.1169 -0.1349
    1W        W66576  14.097  16.722   7.159 -0.1714  0.3255  0.0478
    1W        W66577  28.299  29.607   8.351  0.1208  0.2311  0.1109
    1W        W66578   4.019  28.568   2.314  0.1729 -0.0246 -0.0299
    1W        W66579  24.563  15.594   1.741 -0.0136 -0.1117 -0.2034
    1W        W66580  14.609  10.068   0.365 -0.0454 -0.2757  0.0395
    1W        W66581  18.464   7.200   3.691  0.3103 -0.0956  0.0000
    1W        W66582  13.823  26.179   9.175  0.1904  0.0937  0.0722
    1W        W66583  24.708  14.003   5.910 -0.0979 -0.0981 -0.1120
    1W        W66584   4.048   5.298   0.216 -0.2139 -0.1410 -0.0893
    1W        W66585  10.640  29.142   9.397 -0.0302  0.2960  0.1545
    1W        W66586  11.830  19.841   8.927  0.0567  0.3145 -0.2465
    1W        W66587   0.009  27.342   1.714  0.3604  0.0874 -0.0821
    1W        W66588  12.675  25.591   0.885 -0.1121  0.0878  0.0975
    1W        W66589   5.767   7.243   2.032 -0.0734  0.1912  0.5165
    1W        W66590  26.649  25.954   6.280  0.4007  0.0273  0.0148
    1W        W66591   7.311  17.753   0.030 -0.3272 -0.1997  0.0204
    1W        W66592   0.771  14.983   0.170  0.4339  0.2101 -0.2682
    1W        W66593  23.546  12.214   2.626 -0.0540  0.0783  0.0168
    1W        W66594   3.003  28.960   1.438  0.2336 -0.1682 -0.4125
    1W        W66595   7.075  15.477   8.399 -0.3982  0.4778 -0.2089
    1W        W66596   8.687  24.252   8.342  0.0514 -0.0384 -0.0948
    1W        W66597  10.024   6.513   2.934  0.1680  0.0045  0.2278
    1W        W66598  25.497  13.798   6.870  0.4571 -0.2877  0.0856
    1W        W66599  28.227   7.918   7.782  0.2203 -0.3628  0.2922
    1W        W66600   8.924   6.294   1.044  0.0236  0.1494 -0.0453
    1W        W66601  20.260  16.521   1.648 -0.2030  0.0437 -0.6262
    1W        W66602  15.114  26.007   6.411  0.4001  0.0963  0.0965
    1W        W66603  18.772   6.786   3.445  0.1039 -0.2805  0.1292
    1W        W66604  30.033  20.028   8.092 -0.1914 -0.0631 -0.1584
    1W        W66605  15.794  25.629   6.485  0.0438  0.0594 -0.1676
    1W        W66606  16.185   3.932   8.062  0.2929  0.1800  0.0004
    1W        W66607  17.882   4.460   8.979  0.1285 -0.3249  0.2240
    1W        W66608   8.659  26.361   2.602  0.0342 -0.0423 -0.3698
    1W        W66609  26.132  25.303   6.817  0.2442  0.1083 -0.1296
    1W        W66610  20.559   0.257   7.678 -0.0938  0.1375  0.0139
    1W        W66611   2.355   2.001   0.849  0.0575  0.1782  0.0720
    1W        W66612   7.322   3.472   8.286 -0.0786  0.1076 -0.1294
    1W        W66613  25.876   3.825   8.891  0.4547 -0.1546 -0.0407
    1W        W66614  14.063  27.356   2.790 -0.1468 -0.0516  0.4037
    1W        W66615   4.475   7.826   3.483 -0.2545 -0.3214 -0.0656
    1W        W66616  14.520   5.408   2.316  0.3115 -0.1270 -0.2047
    1W        W66617  23.903  13.655   7.744 -0.1467 -0.1362  0.2262
    1W        W66618  28.606  11.032   0.756 -0.1067  0.1660  0.2557
    1W        W66619  29.495  26.599   2.417  0.0683  0.1163 -0.1973
    1W        W66620  17.686  10.319   7.509 -0.0191 -0.0054 -0.2314
    1W        W66621  10.746   5.435   1.233 -0.5183 -0.0104  0.1704
    1W        W66622   8.468  14.229   1.210 -0.0794  0.1350 -0.1884
    1W        W66623  28.739  28.466   8.279 -0.0026  0.1613 -0.2310
    1W        W66624   7.742  13.820   1.009  0.1019 -0.0993  0.0731
    1W        W66625  28.568   2.255   8.709  0.2810  0.1380 -0.1555
    1W        W66626   5.450  10.319   1.976  0.0095  0.1313  0.4496
    1W        W66627  28.158  12.321   6.527  0.1068  0.0723  0.2049
    1W        W66628   8.540  21.216   1.371  0.1552 -0.1585  0.1717
    1W        W66629  26.608   1.560   1.204 -0.1058  0.0269 -0.0845
    1W        W66630  12.489  12.189   1.061  0.1387  0.2697  0.2382
    1W        W66631  13.860  15.671   1.072 -0.1142  0.3925  0.0783
    1W        W66632  18.961   4.145   0.054  0.1676 -0.1592 -0.0527
    1W        W66633  20.108  25.065   7.599  0.3244 -0.1853 -0.0739
    1W        W66634  25.024  23.369   7.196 -0.1142 -0.0855 -0.2905
    1W        W66635   7.184   6.846   2.732  0.0749  0.0649 -0.1386
    1W        W66636   1.758   9.535   7.282 -0.0467 -0.1505  0.1930
    1W        W66637  23.794   2.289   0.788  0.0656  0.0314  0.0627
    1W        W66638  17.797  14.234   0.579 -0.0316  0.1824  0.0854
    1W        W66639  11.825  23.337   1.353  0.0737 -0.0474  0.0896
    1W        W66640   9.711  17.193   8.812  0.0381 -0.1634  0.2200
    1W        W66641  22.059   4.153   1.780  0.0044 -0.0963  0.0095
    1W        W66642   1.321  20.418   6.408  0.1784 -0.1073  0.0995
    1W        W66643   3.501  19.585   1.421 -0.3698 -0.0231 -0.2288
    1W        W66644   2.631   1.282   8.479  0.1160 -0.0925 -0.0565
    1W        W66645   1.002  12.427   8.270 -0.2458 -0.1190  0.0998
    1W        W66646  25.069  12.735   8.853  0.6043  0.1510  0.1762
    1W        W66647   6.801  14.784   7.921  0.1270 -0.0581  0.2039
    1W        W66648  16.607  10.424   7.821  0.3653  0.0471 -0.0615
    1W        W66649   7.085   9.664   3.661  0.0856  0.1929 -0.1502
    1W        W66650   2.298  28.865   1.136  0.4338 -0.0747 -0.2221
    1W        W66651  12.219  19.930   6.719 -0.1474 -0.0713  0.1033
    1W        W66652  14.513  16.170   1.785 -0.0211  0.0648 -0.0199
    1W        W66653  13.258  13.274   1.643 -0.2095  0.3227 -0.0615
    1W        W66654  19.610  11.809   0.349  0.0339  0.1742  0.0907
    1W        W66655   5.727  25.838   6.759 -0.1677  0.0323  0.1122
    1W        W66656  15.799   5.553   8.019  0.1144  0.2053  0.0545
    1W        W66657  25.908   9.464   0.782  0.2308  0.0515  0.1868
    1W        W66658  24.191  29.420   1.383  0.0542  0.1220 -0.0203
    1W        W66659   6.180  25.216   8.958  0.0498 -0.0622  0.2780
    1W        W66660  23.859  21.933   7.544  0.1829  0.1587 -0.4604
    1W        W66661  21.940  23.385   1.588 -0.1126  0.2204  0.2280
    1W        W66662  14.865  19.908   8.856  0.1199  0.1829  0.2114
    1W        W66663  23.160  12.556   1.689 -0.0693 -0.3560 -0.3641
    1W        W66664  18.415   9.368   8.079  0.2140 -0.3028  0.0387
    1W        W66665  10.967  16.832   8.809  0.0568  0.1497 -0.0838
    1W        W66666  21.252  27.154   1.248 -0.0528 -0.1340  0.0818
    1W        W66667   6.953  19.466   1.449  0.2260  0.2505  0.1639
    1W        W66668  12.026  20.381   8.868  0.1814  0.0390  0.0228
    1W        W66669  24.389  11.341   0.185 -0.1964 -0.1905 -0.1959
    1W        W66670  10.535  10.180   1.112  0.2568 -0.0860 -0.1581
    1W        W66671   0.184   8.581   8.493  0.0504  0.1437  0.1965
    1W        W66672   6.461   9.916   8.335  0.0567  0.1107  0.1534
    1W        W66673   8.081  24.188   8.578 -0.1767 -0.0926  0.0436
    1W        W66674   4.302   4.714   8.675 -0.1191 -0.1026  0.0943
    1W        W66675  16.097  28.447   2.993  0.0239  0.4481  0.1318
    1W        W66676  19.128   7.146   8.397  0.1374 -0.0950 -0.0574
    1W        W66677  10.744  27.367   1.066 -0.0753 -0.3045 -0.2442
    1W        W66678  14.339  13.080   8.815 -0.0788 -0.1540 -0.1679
    1W        W66679  12.369  25.733   1.891 -0.0910 -0.1303 -0.3064
    1W        W66680  11.556  21.965   8.649  0.1165 -0.1618 -0.3857
    1W        W66681  25.860  23.049   1.060 -0.0789 -0.1280  0.2414
    1W        W66682   3.210   9.799   7.813 -0.2946 -0.1687 -0.0630
    1W        W66683  14.057  20.096   1.949  0.1902 -0.2284 -0.0338
    1W        W66684   9.081  26.744   7.841 -0.1275  0.3484  0.0882
    1W        W66685   1.247  13.289   8.641 -0.4007 -0.0835  0.0075
    1W        W66686  20.583  18.498   6.968 -0.1047 -0.3383 -0.0110
    1W        W66687   8.575  16.103   1.132 -0.2158  0.0187 -0.2433
    1W        W66688   5.918   1.340   9.305  0.0865 -0.0639  0.1578
    1W        W66689  28.317   6.026   1.786  0.2109  0.1168  0.0482
    1W        W66690  17.060  10.470   0.433 -0.0539 -0.4822  0.0528
    1W        W66691   8.070  11.237   8.256  0.3241  0.1969  0.0698
    1W        W66692  27.109  22.713   6.709 -0.0351 -0.0677  0.2016
    1W        W66693  19.143  14.396   6.589  0.0886 -0.2050  0.2850
    1W        W66694   2.696  13.878   1.664  0.0294 -0.3816  0.1012
    1W        W66695   8.138  23.201   1.064  0.0978 -0.3863  0.1863
    1W        W66696   2.255  23.509   0.435 -0.0126  0.0671  0.0435
    1W        W66697  15.255   0.950   0.204 -0.0518 -0.0739  0.3089
    1W        W66698   2.958   9.649   2.813  0.0082 -0.1424  0.1217
    1W        W66699  13.777   3.275   7.086  0.0509  0.2524 -0.1172
    1W        W66700  18.717   8.083   0.862  0.0522  0.2819  0.1034
    1W        W66701   6.431  17.294   7.227 -0.2152  0.0757  0.0180
    1W        W66702   6.610   3.487   8.888 -0.1746 -0.1105 -0.0978
    1W        W66703  24.173  16.287   1.015 -0.1486  0.1640 -0.1265
    1W        W66704   3.012   8.647   8.666  0.0673  0.1130 -0.0039
    1W        W66705  13.007   9.923   2.377  0.1619 -0.0849  0.2984
    1W        W66706  19.035  30.076   7.150  0.2084 -0.2347  0.0178
    1W        W66707   6.748  27.481   2.839 -0.4747 -0.3772 -0.1134
    1W        W66708   9.219   2.519   1.772 -0.2701  0.0982 -0.2578
    1W        W66709   7.151  11.239   8.067  0.0175 -0.1388 -0.0967
    1W        W66710   3.505   1.394   2.618  0.0421  0.1030  0.2913
    1W        W66711  13.538  19.212   2.016  0.1039  0.0213 -0.0764
    1W        W66712  24.946  19.086   6.211  0.2090 -0.2028 -0.1858
    1W        W66713   1.756   7.044   8.798 -0.3437 -0.1218  0.1555
    1W        W66714   5.172   9.811   2.044  0.1140 -0.0985  0.2977
    1W        W66715  20.238  11.108   9.198  0.2167 -0.0788  0.1405
    1W        W66716  15.599  29.659   1.281 -0.5745 -0.1771  0.0399
    1W        W66717   4.819   3.604   7.846 -0.0531 -0.2484  0.0764
    1W        W66718  10.295   9.433   8.522  0.1613  0.2988  0.2693
    1W        W66719  22.479  16.605   0.193  0.0741 -0.2657  0.0082
    1W        W66720  22.879   6.126   0.884 -0.0685 -0.4120  0.2614
    1W        W66721   5.234   3.652   1.238  0.0734  0.2289 -0.0444
    1W        W66722   2.299  17.017   9.218 -0.1807 -0.0810  0.4672
    1W        W66723  28.396   9.461   6.480  0.2248  0.1339 -0.1289
    1W        W66724  15.108   9.800   9.076 -0.2028 -0.1450 -0.1044
    1W        W66725  23.442  20.067   2.162 -0.0003 -0.1299 -0.1156
    1W        W66726  22.537  29.618   8.086  0.1268  0.1798 -0.0268
    1W        W66727  16.673  13.789   7.302  0.0380  0.2197 -0.0164
    1W        W66728  30.051   1.426   2.876 -0.0506  0.3136 -0.5299
    1W        W66729   4.452  23.455   9.083  0.1668 -0.0059 -0.2123
    1W        W66730   8.080   0.067   2.960 -0.2468 -0.2993 -0.0838
    1W        W66731   7.754  29.847   8.067 -0.0417 -0.0741  0.1838
    1W        W66732  13.814  28.218   6.901  0.0760 -0.1722  0.1888
    1W        W66733  15.761  29.734   1.792 -0.2849  0.1129  0.0064
    1W        W66734   4.873   7.931   0.996 -0.0897 -0.1524  0.0552
    1W        W66735  24.114  30.083   1.863 -0.0320  0.0012 -0.4252
    1W        W66736   1.301  11.189   5.725  0.0306  0.3113 -0.0782
    1W        W66737   2.923   0.830   0.668  0.2638  0.2552 -0.0872
    1W        W66738   9.534  18.394   7.357  0.2470 -0.0742  0.2813
    1W        W66739   8.812  18.646   0.281 -0.0403 -0.0486  0.1056
    1W        W66740  16.893  21.659   1.146  0.0993 -0.4864  0.0717
    1W        W66741  29.767  22.368   1.435  0.1929 -0.1047  0.1000
    1W        W66742  23.647  15.672   6.818 -0.0998  0.2181 -0.0789
    1W        W66743  18.643  29.753   7.284  0.1720  0.3806  0.1440
    1W        W66744  29.328   6.957   8.015  0.2282 -0.1024 -0.1299
    1W        W66745  29.936  10.608   6.026 -0.1695 -0.1002  0.1121
    1W        W66746  11.160  27.559   1.606 -0.0800 -0.2154  0.0078
    1W        W66747  10.861   6.470   2.931  0.0502  0.0632  0.0488
    1W        W66748   3.816  21.598   7.851  0.0075  0.0061 -0.1467
    1W        W66749  10.068   1.701   1.472 -0.0255 -0.1500 -0.0071
    1W        W66750  28.918   8.579   6.373  0.2838 -0.0049 -0.3628
    1W        W66751  24.374   3.182   7.616 -0.3464  0.2198 -0.1765
    1W        W66752  15.130  27.566   9.185  0.2615  0.1930 -0.2174
    1W        W66753  29.344  17.530   6.620  0.0447 -0.2809 -0.2863
    1W        W66754  17.045  22.412   1.607  0.2651 -0.0464 -0.1410
    1W        W66755   2.705  12.193   8.179  0.2921 -0.0227  0.2667
    1W        W66756   6.274   9.894   2.470  0.0532  0.0230 -0.0117
    1W        W66757  26.692  16.527   1.214 -0.0677 -0.0838  0.0887
    1W        W66758  16.725  22.401   9.016 -0.1950 -0.1132 -0.1777
    1W        W66759   9.984   1.240   7.598  0.0468  0.1347  0.1499
    1W        W66760  24.655  30.098   7.755 -0.0917 -0.3471 -0.1049
    1W        W66761   4.061  12.351   1.948 -0.1946 -0.1090  0.1070
    1W        W66762   7.428  16.346   8.409 -0.0053 -0.0310 -0.2503
    1W        W66763  16.701   1.726   9.070  0.2084 -0.0824 -0.1983
    1W        W66764  27.162  10.307   1.208  0.1271 -0.1229  0.2940
    1W        W66765  12.519   7.896   1.659  0.1043  0.1133  0.2828
    1W        W66766  22.100   5.043   2.393 -0.0094  0.1002 -0.2380
    1W        W66767  24.498   0.685   1.129  0.1685 -0.0065  0.0431
    1W        W66768  26.852  29.875   8.732  0.1592 -0.2556 -0.2703
    1W        W66769   8.610  29.492   2.802 -0.0161 -0.4019  0.2317
    1W        W66770   6.030  28.053   8.602  0.2300 -0.1704 -0.0819
    1W        W66771  29.825   5.961   8.742  0.0433  0.2077  0.0075
    1W        W66772  22.426  20.104   8.096  0.1387 -0.0203  0.2385
    1W        W66773  29.383  18.429   8.077  0.1116  0.1190  0.2395
    1W        W66774  23.348  22.071   7.352 -0.1071  0.2645  0.0762
    1W        W66775   3.914  25.333   8.761  0.0907 -0.1386  0.1474
    1W        W66776  19.628   5.578   0.252  0.0309  0.1301  0.1032
    1W        W66777  15.520  24.016   1.600  0.1140 -0.2243 -0.0631
    1W        W66778  19.255  12.550   8.676 -0.2974 -0.0801 -0.0494
    1W        W66779  15.173   1.346   2.345  0.2975  0.0410  0.0749
    1W        W66780   6.839  15.252   1.830 -0.2867  0.1995  0.0384
    1W        W66781  18.542  11.489   8.293  0.1207  0.0490 -0.1905
    1W        W66782   5.825  23.329   2.341  0.1039  0.1034 -0.4117
    1W        W66783   1.475   0.841   0.639 -0.2335  0.0075  0.3005
    1W        W66784  19.477  11.426   0.585  0.0692  0.0341 -0.2920
    1W        W66785   9.506  12.187   9.234 -0.1505 -0.0512  0.1148
    1W        W66786  18.847  29.349   2.373 -0.3040 -0.1792 -0.4803
    1W        W66787  21.660  24.238   0.176 -0.0735 -0.1724 -0.0019
    1W        W66788  11.254   3.971   3.216  0.0890  0.0183 -0.3080
    1W        W66789  29.426   4.159   8.529  0.1482 -0.1457 -0.0411
    1W        W66790   4.167   7.039   8.714  0.0428  0.1301  0.1587
    1W        W66791  11.902  19.125   0.662 -0.1197  0.2646  0.2725
    1W        W66792   0.868  25.693   8.527 -0.0108  0.0002 -0.1720
    1W        W66793  27.594  10.157   8.916  0.1105  0.0647  0.0735
    1W        W66794  11.159  29.182   0.169 -0.0920  0.0491 -0.0269
    1W        W66795  24.214  27.746   7.670  0.1101 -0.1240 -0.2720
    1W        W66796  26.088  22.768   1.826 -0.0632 -0.3338  0.0605
    1W        W66797  24.622   7.422   3.033 -0.0566 -0.0257 -0.1032
    1W        W66798   1.843  29.091   7.779  0.1525  0.1784 -0.2025
    1W        W66799  11.653  20.307   1.558  0.0835  0.1500  0.2085
    1W        W66800  14.841  17.644   1.882 -0.1529  0.0332  0.0898
    1W        W66801  24.300   9.277   0.336 -0.3139 -0.1807 -0.1081
    1W        W66802  11.767  16.182   2.002 -0.1674 -0.0692 -0.1229
    1W        W66803   4.852   9.371   1.869 -0.0866  0.0426  0.0802
    1W        W66804  16.271   8.736   8.366 -0.0944 -0.0993  0.1648
    1W        W66805  16.176  11.210   2.416  0.2786  0.1756 -0.2290
    1W        W66806  25.069  18.517   9.144 -0.0449 -0.0083 -0.1685
    1W        W66807  20.650  28.965   1.346  0.2714  0.0261 -0.1344
    1W        W66808   7.564   4.226   2.396  0.0180  0.1300 -0.0387
    1W        W66809  29.942   6.777   0.288  0.2010  0.4178  0.3170
    1W        W66810   8.506  13.885   8.667 -0.2589  0.2190  0.2104
    1W        W66811  23.073  21.521   9.128 -0.1313 -0.3524 -0.1976
    1W        W66812  26.137  27.823   7.278 -0.0454  0.0058  0.0894
    1W        W66813   1.135  10.089   1.306  0.1201  0.0883 -0.1884
    1W        W66814   5.339  18.961   6.762  0.3570  0.0635  0.1282
    1W        W66815   1.174   5.281   1.973 -0.0111  0.1846  0.0864
    1W        W66816  23.533   7.410   7.435  0.1251  0.0029 -0.2131
    1W        W66817  23.317  19.083   0.859  0.0549  0.1672 -0.1834
    1W        W66818   8.965  24.580   8.820 -0.0145  0.0825  0.0284
    1W        W66819  19.153  27.261   7.878 -0.0457  0.3138 -0.0436
    1W        W66820  26.198   3.595   7.546  0.0454 -0.2093  0.1264
    1W        W66821  14.180   5.014   0.295 -0.2182 -0.1436 -0.1034
    1W        W66822   1.402   0.222   8.081  0.0069  0.0559  0.0163
    1W        W66823   2.979  27.023   6.851 -0.0007  0.3176  0.0909
    1W        W66824  12.397  23.278   7.843 -0.1725  0.1242  0.1085
    1W        W66825  17.230  14.649   9.393  0.2212 -0.1759 -0.0984
    1W        W66826  25.279  30.034   0.532  0.1879  0.1134 -0.1709
    1W        W66827  19.998  24.513   7.614 -0.1215  0.1369  0.4938
    1W        W66828  20.887   0.127   8.077 -0.2837  0.0583 -0.0929
    1W        W66829   4.885  27.130   8.928 -0.3740  0.1057  0.0477
    1W        W66830  22.458  17.439   8.931  0.2337  0.3358  0.1554
    1W        W66831  25.326  29.342   7.687 -0.1176  0.0569 -0.0945
    1W        W66832   6.108  21.930   8.006 -0.0121 -0.0852  0.1032
    1W        W66833  14.169  21.475   0.403 -0.1006  0.0127 -0.3196
    1W        W66834  18.040   7.839   1.473 -0.0478  0.1961 -0.1491
    1W        W66835   7.984  10.801   7.673 -0.1630  0.0051  0.0658
    1W        W66836   7.368  20.558   6.668  0.1025  0.4175  0.2371
    1W        W66837   0.800   3.766   0.339 -0.0855 -0.0025 -0.0944
    1W        W66838  15.956  19.444   2.720 -0.1515  0.2733  0.2125
    1W        W66839  27.757   2.235   1.145  0.2856  0.3094  0.1012
    1W        W66840   5.134  22.755   6.238  0.0639  0.0213 -0.2929
    1W        W66841   2.983  24.943   6.667  0.1907 -0.1623  0.0866
    1W        W66842  14.404  21.603   7.347 -0.2857 -0.1213  0.1114
    1W        W66843  22.736  14.444   0.197  0.2329  0.0139  0.0885
    1W        W66844  29.926  11.832   7.443 -0.0796  0.0382 -0.5291
    1W        W66845  28.886   3.824   7.677  0.1203 -0.2940  0.1434
    1W        W66846   8.810   3.362   1.377 -0.0148 -0.3619  0.0037
    1W        W66847   3.460  28.075   1.761  0.0194 -0.0926 -0.0336
    1W        W66848  29.170  15.441   0.415 -0.1706  0.0439  0.2330
    1W        W66849   7.690   3.049   8.535  0.1735  0.0582 -0.2006
    1W        W66850  14.540   2.746   9.181  0.3061 -0.1418 -0.2743
    1W        W66851  26.379   7.761   8.726  0.1316 -0.2358 -0.1394
    1W        W66852  12.535  19.174   6.644  0.1827  0.0228 -0.1432
    1W        W66853  21.446  13.416   0.441 -0.0170 -0.2896  0.1131
    1W        W66854   8.503  22.090   1.563  0.0051  0.3142 -0.3187
    1W        W66855  19.626  18.243   6.793 -0.2148 -0.0728 -0.0183
    1W        W66856  29.373   3.617   0.656  0.1676  0.0816 -0.1674
    1W        W66857  18.069  20.459   1.322  0.1212 -0.0081  0.0807
    1W        W66858  11.681  11.284   1.901  0.0438  0.1627 -0.1891
    1W        W66859  20.976   4.897   7.595 -0.2333  0.3961  0.4871
    1W        W66860  25.878  19.666   1.009  0.2012 -0.4758  0.1201
    1W        W66861  14.891  24.764   6.593  0.0112 -0.1936 -0.1720
    1W        W66862   8.334  20.582   8.810 -0.2096  0.3979  0.1131
    1W        W66863  25.661  16.151   8.170 -0.2635 -0.0476 -0.0991
    1W        W66864   7.476   4.056   1.113  0.1354  0.1913  0.1618
    1W        W66865   8.617  25.197   7.193 -0.0333 -0.3016  0.2310
    1W        W66866  14.924  28.511   8.261 -0.5505 -0.2630  0.5309
    1W        W66867   2.855  23.910   6.736 -0.0630  0.3134  0.3094
    1W        W66868  23.195  19.331   7.166 -0.2064 -0.0889 -0.0375
    1W        W66869  11.492  23.665   2.788  0.0814  0.0246  0.0195
    1W        W66870   0.724  17.684   8.243 -0.0745 -0.3441  0.2154
    1W        W66871   6.552  18.575   0.697  0.1628  0.0611  0.2054
    1W        W66872  12.394  11.352   8.025  0.0288 -0.0351 -0.1488
    1W        W66873  14.562   4.186   3.552 -0.0430 -0.2472 -0.3515
    1W        W66874   2.325   2.094   2.526  0.1218 -0.1298  0.3943
    1W        W66875   9.403   1.743   6.859 -0.1303 -0.0459 -0.0242
    1W        W66876  29.617  18.249   8.501 -0.1619  0.1580  0.0990
    1W        W66877  21.685  25.817   5.846  0.1267 -0.0091 -0.0065
    1W        W66878  26.565   1.473   8.172 -0.0300 -0.1349  0.1966
    1W        W66879  12.605  26.090   6.864  0.0074  0.0288  0.0107
    1W        W66880  19.734  24.644   0.009  0.2451 -0.2471 -0.1384
    1W        W66881  23.844  11.249   2.817  0.0752  0.0837  0.0143
    1W        W66882  22.333  23.900   2.218  0.3031  0.0762  0.0258
    1W        W66883   2.591   5.953   1.076 -0.0257 -0.1158 -0.1581
    1W        W66884  26.019   6.095   2.130 -0.3204 -0.0889  0.0670
    1W        W66885  23.955  15.466   6.422 -0.1958 -0.3261 -0.0349
    1W        W66886  22.128  29.739   8.597  0.3129 -0.0962 -0.3124
    1W        W66887  24.457  28.720   0.689 -0.1017 -0.2886 -0.1098
    1W        W66888   1.734  28.457   7.250  0.2074 -0.0563 -0.1098
    1W        W66889   0.636  11.170   8.089 -0.0717 -0.3668 -0.0687
    1W        W66890   4.927   1.364   0.824 -0.1556 -0.1995 -0.1924
    1W        W66891  21.594  18.753   9.327  0.0904  0.0914  0.0931
    1W        W66892  21.861  20.036   0.430  0.2102  0.0363 -0.3298
    1W        W66893   4.692  20.582   4.871 -0.1225 -0.2988 -0.0933
    1W        W66894  24.924   0.560   2.411  0.0707 -0.0895 -0.1376
    1W        W66895  11.779  23.045   5.864 -0.1457  0.0060  0.2114
    1W        W66896   4.365  18.124   8.267 -0.0209  0.1007 -0.2668
    1W        W66897   8.910   1.016   7.324 -0.3176 -0.4045 -0.0118
    1W        W66898  15.528  13.719   7.739 -0.0112 -0.1011  0.1121
    1W        W66899   8.494   7.746   2.278 -0.1645 -0.2877 -0.0492
    1W        W66900  18.758   5.564   2.616 -0.1381  0.0028 -0.0694
    1W        W66901  14.769   3.203   1.814  0.1341  0.0623 -0.0921
    1W        W66902  26.871  12.514   8.785 -0.0032  0.1742  0.1733
    1W        W66903  14.888  23.646   7.748 -0.0555 -0.1132 -0.0986
    1W        W66904   2.630  12.703   7.782 -0.4677 -0.2111 -0.2160
    1W        W66905  15.528   5.909   8.835  0.2117 -0.0004 -0.2157
    1W        W66906  14.927  25.836   0.545  0.0375 -0.2293  0.0308
    1W        W66907   5.652   5.071   2.981 -0.3389 -0.1585 -0.1650
    1W        W66908   3.632   8.940   6.240  0.1053 -0.1548  0.0376
    1W        W66909   9.701   8.276   0.957 -0.0617 -0.0662  0.1235
    1W        W66910  14.532  16.918   0.712 -0.0987 -0.0947 -0.0235
    1W        W66911  12.034   9.255   1.637  0.1238 -0.0233 -0.0288
    1W        W66912   3.575  28.206   2.207 -0.3073 -0.2607  0.2213
    1W        W66913   1.757  23.105   9.139 -0.0705  0.0506  0.0069
    1W        W66914   4.085  16.301   2.106  0.1923  0.1794 -0.0659
    1W        W66915  14.874   3.356   7.999 -0.0298 -0.0778 -0.3785
    1W        W66916  26.478  28.516   1.770 -0.0867 -0.3373 -0.0758
    1W        W66917   5.689  22.057   1.770 -0.1944  0.0394 -0.1884
    1W        W66918  26.444   9.485   8.292 -0.2594  0.1269 -0.0712
    1W        W66919  24.213  24.942   2.513 -0.4048  0.0019 -0.2617
    1W        W66920  25.637  25.440   6.765 -0.0569  0.1304  0.1110
    1W        W66921  26.618  15.707   1.895 -0.2820 -0.2115 -0.0708
    1W        W66922  13.337  14.278   0.780 -0.2121 -0.0323 -0.2297
    1W        W66923  13.808   7.294   2.790  0.0743 -0.0420  0.1705
    1W        W66924   6.063  22.958   5.923  0.2460 -0.1545  0.0248
    1W        W66925  24.377  16.038   1.403  0.1017 -0.0867  0.2587
    1W        W66926  11.900   6.954   2.261 -0.1887 -0.1713  0.0041
    1W        W66927  14.666   6.300   1.130 -0.1298  0.2031 -0.2332
    1W        W66928  16.697  26.881   0.729 -0.0639  0.1911 -0.0205
    1W        W66929  11.510  13.209   8.193 -0.0313  0.1310 -0.0512
    1W        W66930   3.841  13.681   8.826 -0.0772  0.0827 -0.0755
    1W        W66931   9.508   3.177   7.925 -0.0859 -0.3360  0.0149
    1W        W66932  13.480  29.398   7.663 -0.0480  0.1954 -0.0133
    1W        W66933  11.456   2.870   0.850 -0.2294 -0.0857 -0.0934
    1W        W66934  20.198  24.695   1.865 -0.0477 -0.3643  0.0686
    1W        W66935  11.276   3.108   1.456 -0.2674 -0.1921  0.2800
    1W        W66936  14.511  26.418   2.808  0.0233 -0.0495  0.2822
    1W        W66937  18.380  24.581   7.584 -0.1092 -0.1618  0.0766
    1W        W66938  11.203   2.511   2.177  0.0116 -0.1054 -0.3027
    1W        W66939   9.438   0.192   7.698 -0.1495  0.0337  0.1147
    1W        W66940   5.854  28.014   0.765  0.3623  0.3386  0.4003
    1W        W66941   3.349  28.282   8.951  0.3918 -0.1957  0.3193
    1W        W66942   7.444  11.795   2.054  0.1244 -0.4244  0.0811
    1W        W66943  21.378  30.031   9.237 -0.1523  0.0039 -0.2437
    1W        W66944  23.212  16.251   7.513 -0.0264 -0.2712  0.3420
    1W        W66945  27.302  12.249   8.745  0.0628 -0.3003  0.0394
    1W        W66946  24.389  15.771   7.298 -0.0926  0.3034  0.4972
    1W        W66947  15.358  17.384   0.252  0.0885  0.1241 -0.2387
    1W        W66948  26.853   3.555   1.802 -0.1514 -0.2687  0.0202
    1W        W66949  19.349  25.223   2.757  0.2133  0.1298  0.2407
    1W        W66950  13.778   9.039   3.357 -0.2237 -0.1380  0.1511
    1W        W66951  29.870  18.238   8.064 -0.4447 -0.0532  0.1052
    1W        W66952  14.797  13.774   7.130 -0.0568 -0.2195 -0.1110
    1W        W66953  18.025   3.595   0.647  0.0171 -0.2371  0.1006
    1W        W66954   3.197   4.968   2.554 -0.1600 -0.1295  0.0550
    1W        W66955  12.057  14.851   2.494 -0.0085  0.2094 -0.2634
    1W        W66956   5.925   2.920   2.416  0.1611 -0.0334 -0.2087
    1W        W66957  10.256  29.849   1.727 -0.0855 -0.0959  0.1967
    1W        W66958  12.021   5.468   2.921 -0.1887 -0.0258 -0.2051
    1W        W66959  22.758   0.523   7.097 -0.0192 -0.0469 -0.0333
    1W        W66960  14.349   9.578   2.665  0.0098 -0.0769  0.2018
    1W        W66961  14.527  23.983   1.985 -0.2711  0.0955  0.0034
    1W        W66962  28.478   3.821   6.407  0.2273  0.0168  0.1614
    1W        W66963   0.285   6.155   7.884  0.1419 -0.0115 -0.1077
    1W        W66964  22.789  19.536   6.166  0.0985  0.0306  0.1461
    1W        W66965   6.056  14.119   6.663 -0.3428  0.0917 -0.1744
    1W        W66966   6.119  14.916   0.674 -0.1457  0.1398  0.1246
    1W        W66967   5.963   1.611   2.983 -0.0361  0.2894  0.0743
    1W        W66968   5.704  11.612   8.304 -0.3466  0.1110 -0.0326
    1W        W66969   3.689  19.199   1.162 -0.1292  0.1627  0.1047
    1W        W66970  19.489   6.339   2.907  0.0555 -0.1097 -0.2111
    1W        W66971   2.471  11.435   1.914  0.0435 -0.0415  0.2089
    1W        W66972   3.921  24.044   6.826  0.0605  0.0037 -0.1950
    1W        W66973  15.185   6.924   7.695 -0.0947  0.2252  0.4325
    1W        W66974  12.259  27.783   2.005  0.2061 -0.0318  0.2021
    1W        W66975  25.423  22.206   6.878  0.1820  0.2661  0.3357
    1W        W66976   2.369  22.098   7.230 -0.1002 -0.0725 -0.1574
    1W        W66977  11.378  27.825   7.399  0.2727 -0.1013  0.1100
    1W        W66978   7.529  22.606   7.254  0.0395  0.1469 -0.1147
    1W        W66979   7.869  25.714   6.137  0.0490 -0.0612 -0.0692
    1W        W66980  15.390   9.296   8.990  0.0982  0.3358  0.3413
    1W        W66981  17.235   3.531   1.042  0.0986 -0.0306  0.1879
    1W        W66982  12.920  25.062   7.385  0.1685  0.0116  0.0787
    1W        W66983  28.862  10.781   6.404  0.2844 -0.0024  0.2186
    1W        W66984   1.041  18.870   6.745 -0.1561  0.1280 -0.0968
    1W        W66985  23.336  26.479   1.886  0.0897  0.0970 -0.0308
    1W        W66986  10.250  29.533   1.290 -0.0995 -0.0010 -0.2719
    1W        W66987  10.675  10.991   8.723 -0.0810 -0.0982  0.0451
    1W        W66988  21.535  15.325   1.733  0.2433  0.0071  0.0497
    1W        W66989  16.943   0.876   9.279  0.3110  0.2471  0.0095
    1W        W66990   9.693   1.113   2.854 -0.2043  0.1254 -0.3101
    1W        W66991   3.213   2.481   2.059  0.0340 -0.0861 -0.1697
    1W        W66992  28.757   0.929   9.333 -0.0474 -0.2421 -0.0579
    1W        W66993   9.444   8.463   1.440  0.1232 -0.3829  0.1051
    1W        W66994   0.303  14.493   0.977  0.0263 -0.2740  0.1586
    1W        W66995   0.583  25.646   1.136  0.0474  0.0463  0.1970
    1W        W66996   7.376  17.416   0.434 -0.1109  0.0731  0.2686
    1W        W66997  29.497  10.592   8.943 -0.2546  0.1810 -0.2146
    1W        W66998   0.289   1.499   2.537 -0.0470  0.0673  0.3323
    1W        W66999  27.951  15.469   1.334 -0.0870  0.1952 -0.0779
    1W        W67000   1.267   4.974   0.112  0.0053  0.2317 -0.1663
    1W        W67001  12.816   3.091   2.029  0.2508 -0.3352  0.1441
    1W        W67002  29.239  18.881   7.213  0.0018 -0.0650  0.1343
    1W        W67003  19.729  22.013   8.526 -0.1526  0.2318  0.2695
    1W        W67004  18.223  13.571   7.864 -0.0157  0.1227  0.2281
    1W        W67005  20.459  22.358   0.721  0.0406  0.2410 -0.1540
    1W        W67006   1.862  27.485   1.357 -0.4731  0.0393  0.2211
    1W        W67007   8.631   8.162   4.085 -0.0691 -0.1207 -0.1220
    1W        W67008  10.835  20.484   2.536 -0.0721 -0.0382  0.1333
    1W        W67009   6.725   0.978   3.685  0.1473 -0.0090  0.1108
    1W        W67010  24.427  10.012   1.445 -0.1986  0.0839  0.0280
    1W        W67011   6.554  16.430   1.350 -0.2206  0.0949 -0.0288
    1W        W67012  29.477  16.488   0.133  0.2153 -0.2827 -0.1845
    1W        W67013  16.754  10.065   0.198  0.1107  0.0549 -0.0970
    1W        W67014   6.325  14.954   8.148 -0.0779  0.2066  0.4446
    1W        W67015   3.248  23.552   6.080  0.0393 -0.3261  0.0679
    1W        W67016   1.064   1.988   8.455  0.0934 -0.1104 -0.0806
    1W        W67017  25.527  24.396   2.464  0.1618  0.2911 -0.2134
    1W        W67018  29.237  28.075   6.871 -0.0318 -0.0534 -0.1232
    1W        W67019  19.997  20.108   0.655 -0.1362 -0.1642 -0.0943
    1W        W67020  17.120   5.857   8.758  0.0603  0.0850  0.0671
    1W        W67021  26.152  13.721   7.795 -0.1710 -0.0748 -0.0622
    1W        W67022   1.350  14.912   0.015 -0.1042  0.6149  0.0198
    1W        W67023   6.111  24.967   0.127  0.0149 -0.1000 -0.3252
    1W        W67024   9.932   5.474   9.166 -0.4111  0.1027  0.2860
    1W        W67025  12.194  14.662   7.736 -0.0266 -0.2480  0.1989
    1W        W67026   9.192   7.526   7.426  0.0475 -0.2939  0.1675
    1W        W67027  28.636  21.082   6.508 -0.1688  0.1758 -0.0139
    1W        W67028   5.221   8.859   7.697 -0.2402  0.2566  0.0906
    1W        W67029   3.925  14.834   7.716  0.0480  0.1341  0.1911
    1W        W67030   4.574  16.714   7.687 -0.0540  0.0659 -0.0330
    1W        W67031  27.489   8.012   1.169  0.1526  0.1114 -0.0221
    1W        W67032  13.754  26.731   9.164  0.2830 -0.0578  0.0707
    1W        W67033   8.550  25.056   7.635 -0.1024  0.1279 -0.3056
    1W        W67034   2.989   1.209   0.187  0.1968  0.0200  0.0299
    1W        W67035  22.432   2.424   0.454  0.4341  0.1163  0.2829
    1W        W67036  27.055   8.781   1.193 -0.2033  0.3222  0.1880
    1W        W67037  28.662  13.058   7.941  0.1278 -0.1424 -0.1439
    1W        W67038   9.404  23.112   7.281 -0.0090  0.1483  0.2064
    1W        W67039  29.972  21.543   9.298 -0.1272 -0.1974 -0.0200
    1W        W67040  25.615  21.767   6.962 -0.0732 -0.2799 -0.2299
    1W        W67041  26.728  20.997   0.405  0.1764  0.0234 -0.1523
    1W        W67042  22.640   7.063   9.071 -0.0455 -0.0727 -0.2005
    1W        W67043  29.865  17.858   7.316 -0.0754  0.0674  0.0187
    1W        W67044   0.105  25.162   6.245 -0.1395  0.2036  0.0509
    1W        W67045   8.859   3.512   8.508  0.4997  0.0617 -0.2018
    1W        W67046  14.689  13.437   8.815  0.1118  0.2308 -0.1241
    1W        W67047  12.938  27.706   9.046  0.1027  0.0722 -0.0090
    1W        W67048  24.093  28.007   2.887 -0.2003 -0.3537  0.0812
    1W        W67049   6.226   0.703   0.657  0.1292 -0.2170 -0.0511
    1W        W67050  24.580   9.128   1.135 -0.3962  0.1068  0.1390
    1W        W67051  20.332   5.820   1.420  0.3363 -0.0156  0.1530
    1W        W67052  24.867   2.752   1.890 -0.0564 -0.0417 -0.1668
    1W        W67053   8.555  13.704   9.172 -0.0411  0.2243 -0.0148
    1W        W67054  28.158   8.267   8.184  0.1301 -0.1824 -0.2250
    1W        W67055   4.728  13.692   6.233 -0.0323 -0.0294  0.0598
    1W        W67056  20.260  24.797   8.534 -0.2397 -0.1135  0.2613
    1W        W67057  25.652  15.448   1.427  0.1136  0.1652 -0.2251
    1W        W67058  29.530  21.530   7.765  0.2614  0.0167 -0.0073
    1W        W67059  11.407   2.671   1.771 -0.0112 -0.0265  0.2988
    1W        W67060   2.545  26.836   6.999 -0.0291  0.1562 -0.0961
    1W        W67061  23.923  23.259   2.429  0.2818  0.1088  0.1320
    1W        W67062  29.982   6.599   2.611  0.0572 -0.0357  0.3510
    1W        W67063  22.011   0.377   1.529  0.2149  0.0568 -0.0715
    1W        W67064  22.045  21.711   8.956 -0.0604  0.1955 -0.0699
    1W        W67065  18.658  28.157   8.184  0.0483  0.0168 -0.1016
    1W        W67066  28.066  15.163   7.159  0.1931 -0.3653 -0.0746
    1W        W67067  21.000  22.378   6.628  0.1327 -0.1914 -0.0334
    1W        W67068  26.670  26.044   2.369 -0.0758  0.1877 -0.0732
    1W        W67069  26.281   0.535   8.588  0.0390  0.0094  0.2873
    1W        W67070  16.316  24.594   1.291 -0.1627  0.2745 -0.1023
    1W        W67071  17.770   6.707   0.846 -0.2676 -0.1078 -0.0534
    1W        W67072  19.699  18.244   8.814 -0.0996  0.0615 -0.1748
    1W        W67073  28.324  23.337   0.438  0.1401  0.0026 -0.3109
    1W        W67074  29.837  17.631   9.357  0.0968  0.1386  0.2277
    1W        W67075  17.944  24.068   8.065  0.1196  0.3359  0.0966
    1W        W67076   8.721   5.945   7.958 -0.0924 -0.1514 -0.0090
    1W        W67077   9.398  18.610   8.217  0.0029  0.0857 -0.1149
    1W        W67078   4.981   0.566   7.450  0.1264  0.2225  0.2306
    1W        W67079   1.047   4.146   1.661  0.0854  0.2213  0.0376
    1W        W67080  15.669   5.972   7.741 -0.1125 -0.0216 -0.2317
    1W        W67081  24.882  29.515   9.110  0.3798  0.0729 -0.1864
    1W        W67082  22.047  20.346   7.703  0.0058 -0.0063 -0.1314
    1W        W67083   0.857  13.665   8.549 -0.0485 -0.0390 -0.1713
    1W        W67084  12.120  26.123   1.055  0.2101  0.0191 -0.1006
    1W        W67085   6.034   9.647   7.408  0.0196 -0.2923  0.0838
    1W        W67086  25.376  20.837   1.490 -0.0378  0.0557 -0.1140
    1W        W67087   3.398  17.995   5.815  0.2491 -0.5062 -0.0619
    1W        W67088   7.208   1.803   1.503 -0.0817  0.1589 -0.1119
    1W        W67089  15.473  23.225   6.209 -0.2603  0.2563 -0.0496
    1W        W67090  25.284  27.940   9.282  0.0870 -0.2765  0.1802
    1W        W67091  15.604  10.655   1.228 -0.0416 -0.1104  0.0619
    1W        W67092   3.686  13.981   7.847 -0.4196 -0.4194  0.0286
    1W        W67093   4.302  11.006   8.264 -0.0506  0.1437  0.3410
    1W        W67094   1.330  10.956   0.795 -0.0458  0.4727 -0.2369
    1W        W67095  22.633  27.899   2.435 -0.0119  0.0080  0.1994
    1W        W67096   9.614  23.505   6.989 -0.0731 -0.1628  0.0942
    1W        W67097  17.238   7.128   7.031  0.1218  0.0640 -0.1237
    1W        W67098  25.031   9.625   2.291 -0.2388 -0.1482 -0.2399
    1W        W67099  19.749   3.113   1.176 -0.2991  0.4446 -0.0436
    1W        W67100  18.875   8.118   0.383 -0.0162  0.0273 -0.2229
    1W        W67101   9.716  13.598   7.249  0.0454  0.0572  0.1632
    1W        W67102  23.011  29.238   6.938  0.0111  0.0340 -0.0385
    1W        W67103  28.238  23.851   1.134 -0.1170 -0.1587  0.1148
    1W        W67104  17.510  24.724   9.039 -0.0248  0.2125  0.0475
    1W        W67105  23.484   5.905   9.087  0.1248  0.0671 -0.3276
    1W        W67106  27.286  27.237   0.703  0.0823 -0.2153  0.0276
    1W        W67107  16.439  27.889   0.283  0.1485  0.0974 -0.1378
    1W        W67108   6.101  16.891   6.872  0.0449  0.1377 -0.1838
    1W        W67109  28.302   0.782   8.007 -0.1853  0.0325  0.0616
    1W        W67110  10.581  17.040   1.875  0.2193 -0.0826 -0.1960
    1W        W67111  20.819  14.765   6.779  0.1585  0.0050  0.3245
    1W        W67112  19.066   7.683   8.315 -0.1077 -0.0099  0.0642
    1W        W67113  11.489   4.394   0.600  0.1926 -0.1166  0.2031
    1W        W67114  18.553  13.708   6.531 -0.2935 -0.1838  0.1472
    1W        W67115  20.793  16.292   1.386 -0.0624 -0.2029 -0.1058
    1W        W67116  17.646  29.326   7.776 -0.2202  0.0960  0.1068
    1W        W67117  24.754  29.783   3.002  0.0361 -0.3638  0.0818
    1W        W67118   0.818  18.424   0.381 -0.1275 -0.0578  0.0649
    1W        W67119   4.882  28.940   2.557  0.1776  0.0108  0.1555
    1W        W67120  26.479  10.358   6.800  0.2288 -0.0122 -0.0731
    1W        W67121   1.229  21.486   5.658  0.0712 -0.0869 -0.1444
    1W        W67122   1.433  23.017   7.473 -0.3958  0.1279  0.0648
    1W        W67123   1.248  26.331   2.164  0.2572 -0.0408 -0.0720
    1W        W67124   5.412  15.531   2.676  0.3716  0.4348 -0.1571
    1W        W67125   0.271   6.826   2.579 -0.0527  0.2474 -0.0781
    1W        W67126  25.578  20.258   6.523  0.2364  0.2351  0.1230
    1W        W67127  25.986   6.280   0.646  0.1086  0.0919 -0.0401
    1W        W67128   6.422   2.220   0.506  0.1496 -0.3696  0.1366
    1W        W67129  25.464   7.015   7.154  0.1675  0.2130 -0.1248
    1W        W67130  23.911   5.785   6.745 -0.2386 -0.0331  0.1019
    1W        W67131  29.666  28.874   2.281 -0.1911  0.0122  0.2206
    1W        W67132  26.559  27.480   7.407  0.1996  0.0506 -0.0313
    1W        W67133   7.133  15.769   0.775  0.3326 -0.2019 -0.1385
    1W        W67134  30.058  14.055   7.729  0.0107  0.2376 -0.1353
    1W        W67135   0.765   3.716   1.614 -0.2671  0.0818 -0.5129
    1W        W67136  26.785  10.333   8.107  0.0576 -0.0405 -0.0723
    1W        W67137  22.315  26.658   9.026  0.0012 -0.0214  0.3277
    1W        W67138   7.169  23.907   8.206  0.0562 -0.0093 -0.0733
    1W        W67139  10.956  30.047   2.349 -0.1137  0.1064 -0.3031
    1W        W67140  29.474   6.369   0.081 -0.3463  0.1201  0.3676
    1W        W67141  29.544  12.013   0.591 -0.0364 -0.1955  0.0803
    1W        W67142   4.224  23.207   6.404 -0.1255 -0.0907 -0.1841
    1W        W67143  25.103   2.909   8.144 -0.2876 -0.3930 -0.1671
    1W        W67144  26.410  23.258   0.480 -0.0468 -0.2839  0.0982
    1W        W67145  26.506   7.290   1.842 -0.3204  0.0737  0.1500
    1W        W67146  20.453  27.677   8.725  0.2464  0.1312 -0.1839
    1W        W67147  24.482  22.930   2.493  0.2781 -0.3769  0.2906
    1W        W67148   2.401   4.741   0.007 -0.0865  0.1066 -0.0301
    1W        W67149  14.120  15.109   1.649 -0.3626 -0.5079 -0.1015
    1W        W67150   0.673  22.341   0.148 -0.1908 -0.0258 -0.1011
    1W        W67151  11.912  20.886   0.839  0.0160 -0.0997 -0.3181
    1W        W67152  18.462  27.957   1.259 -0.2041 -0.0627 -0.1829
    1W        W67153  10.026  12.726   2.348  0.1521 -0.1847 -0.3758
    1W        W67154  12.495  26.222   1.350  0.3937 -0.1988  0.3956
    1W        W67155   9.030  28.651   7.360 -0.0401  0.2400  0.3261
    1W        W67156   5.812   9.133   3.458 -0.2565  0.1519  0.1329
    1W        W67157  23.958   6.727   0.545 -0.1473  0.2111 -0.0090
    1W        W67158   4.140   9.054   6.931  0.0726  0.0720  0.1814
    1W        W67159  13.423  14.788   0.382  0.0070  0.0640 -0.0770
    1W        W67160  16.832   3.303   1.313 -0.2117  0.1224  0.0491
    1W        W67161  26.082  22.797   8.524 -0.0647 -0.1543  0.1558
    1W        W67162   1.659  20.397   0.388 -0.0804  0.0361  0.1214
    1W        W67163  21.932  22.059   6.629 -0.1151  0.3246  0.1532
    1W        W67164  22.353  15.653   7.154 -0.1766 -0.1049  0.1394
    1W        W67165  18.705  23.992   2.028 -0.0606 -0.1312  0.2041
    1W        W67166  24.833  29.734   0.795 -0.0609 -0.1000  0.3835
    1W        W67167   9.426  28.078   8.089 -0.2786  0.2126  0.2568
    1W        W67168  20.274  14.254   1.620 -0.3314  0.1899  0.0477
    1W        W67169  19.583   9.681   2.831  0.5433  0.2918 -0.5188
    1W        W67170  21.674   6.503   1.660  0.0425 -0.1984  0.0264
    1W        W67171  20.245  19.727   0.880  0.0043  0.1500  0.0236
    1W        W67172   8.366  26.515   6.837 -0.0073  0.2959  0.0831
    1W        W67173  27.183  26.893   8.382 -0.2629  0.3326 -0.1152
    1W        W67174  19.373  10.510   1.220 -0.3057  0.2373 -0.2719
    1W        W67175  21.667   6.630   7.191  0.0313 -0.2685  0.3366
    1W        W67176  21.608   1.490   9.377 -0.1261 -0.1945 -0.2423
    1W        W67177  14.205   1.044   7.873  0.3169 -0.2839 -0.0171
    1W        W67178  27.997   0.833   8.988 -0.3162  0.1458 -0.0366
    1W        W67179  10.086  24.587   7.399  0.0207  0.0149 -0.2128
    1W        W67180  17.936   4.998   8.996 -0.0669 -0.0464  0.1541
    1W        W67181  13.639   6.085   2.140 -0.0975  0.0055  0.0303
    1W        W67182   7.703  29.306   2.602  0.1877  0.0570 -0.0251
    1W        W67183  20.242   1.665   0.312 -0.2472  0.1724 -0.0320
    1W        W67184  28.709  22.608   2.254  0.2239 -0.0844  0.0586
    1W        W67185   5.735  14.529   6.574  0.2222  0.1384  0.0331
    1W        W67186   2.390  10.817   8.754 -0.0291  0.1172 -0.1442
    1W        W67187   2.073  10.644   0.159 -0.2421 -0.1320  0.0805
    1W        W67188  29.562  27.912   2.963 -0.3113  0.0565 -0.0647
    1W        W67189  29.456   0.556   2.367 -0.0227 -0.1540  0.0077
    1W        W67190   4.896  19.163   0.625  0.1748  0.1105  0.1589
    1W        W67191  10.254  21.113   1.095 -0.3120 -0.0151  0.0642
    1W        W67192   4.962  22.314   9.305 -0.0466  0.1866 -0.1517
    1W        W67193  26.686  11.468   6.937  0.0147 -0.0176 -0.1236
    1W        W67194   2.925   4.960   0.180 -0.0212  0.2003  0.2741
    1W        W67195  25.709  22.658   7.613  0.1805 -0.0006  0.1211
    1W        W67196  21.621  18.284   1.195 -0.2028 -0.0611  0.0450
    1W        W67197  11.391  14.950   8.759 -0.2318  0.5326  0.0560
    1W        W67198  25.181  28.648   6.408  0.1932  0.1824 -0.0199
    1W        W67199  15.254  13.217   7.472  0.0800 -0.2494 -0.0558
    1W        W67200  29.737   1.627   2.191 -0.0327 -0.0105  0.0929
    1W        W67201  11.710   3.672   3.324 -0.0473 -0.2487 -0.1094
    1W        W67202  18.757   8.590   0.837  0.2092 -0.0175 -0.0890
    1W        W67203   6.130   1.014   0.272  0.0495  0.3286 -0.1573
    1W        W67204  20.677  15.025   7.174 -0.1909 -0.2214 -0.2605
    1W        W67205  21.141  18.322   9.114  0.1863  0.2976 -0.2308
    1W        W67206   6.603   6.066   9.334 -0.1133  0.1909  0.0419
    1W        W67207  10.257   6.560   8.038 -0.0655 -0.2249 -0.1825
    1W        W67208   2.116   6.370   3.302 -0.2666 -0.1330 -0.0733
    1W        W67209  27.684   2.511   2.789 -0.0861  0.0243  0.0149
    1W        W67210  25.757  24.022   7.384  0.1106  0.1335  0.2014
    1W        W67211  26.823  27.095   1.627 -0.0577 -0.1422 -0.3443
    1W        W67212  28.989  12.020   0.415  0.0108  0.1825  0.1841
    1W        W67213  14.573  15.341   7.628 -0.0886 -0.1625 -0.3937
    1W        W67214  10.963  24.588   6.575 -0.0687 -0.1304 -0.1694
    1W        W67215  10.131  28.381   8.612 -0.1959  0.0033  0.2583
    1W        W67216  14.610  23.240   2.087  0.1195  0.0269  0.0007
    1W        W67217  28.819   9.634   5.612 -0.0415  0.4151  0.1193
    1W        W67218  20.676  26.335   0.707 -0.1713  0.0080  0.2305
    1W        W67219   6.977  11.859   0.204  0.0003  0.1714  0.0792
    1W        W67220  21.507  18.374   8.701  0.2168  0.2304  0.1443
    1W        W67221  16.488  23.043   0.354 -0.2060  0.2150 -0.0893
    1W        W67222   6.737  15.687   0.027 -0.0983 -0.0599 -0.0409
    1W        W67223   4.397  28.780   2.517 -0.2443 -0.0357  0.3567
    1W        W67224  27.808   2.992   7.836  0.1700 -0.3176 -0.3010
    1W        W67225  22.295  13.949   6.354 -0.0773 -0.0861 -0.0199
    1W        W67226  21.927  11.922   1.959  0.0670  0.2172 -0.0295
    1W        W67227  24.408  27.561   1.776  0.0575 -0.0218  0.1740
    1W        W67228   6.526  13.166   8.167  0.0291 -0.0947 -0.2943
    1W        W67229  17.968  26.563   1.954 -0.1878  0.2193  0.1861
    1W        W67230  11.585  11.998   0.157  0.1112 -0.0013 -0.0745
    1W        W67231  17.395   9.532   8.888 -0.1906 -0.0017  0.2681
    1W        W67232  28.247   7.510   8.159  0.0161 -0.3745 -0.1721
    1W        W67233   2.579  22.457   6.975 -0.1232  0.1843 -0.1901
    1W        W67234  24.017   2.526   9.271  0.0768 -0.0020  0.1007
    1W        W67235   4.684  12.525   0.595  0.0201  0.1807 -0.1022
    1W        W67236  19.954  29.446   7.795  0.2692 -0.2587  0.3141
    1W        W67237   3.687  29.334   7.650  0.4846 -0.2656 -0.2294
    1W        W67238  19.980  10.679   7.039 -0.0450  0.1004  0.2120
    1W        W67239  11.906  21.122   9.166 -0.0837  0.0524 -0.0178
    1W        W67240  13.936   0.574   8.524  0.1450  0.3395  0.2150
    1W        W67241  25.440  17.826   6.314  0.1651 -0.1202  0.0912
    1W        W67242   2.115  26.389   1.064 -0.0380 -0.2423 -0.1240
    1W        W67243  28.675   4.198   9.398 -0.2540  0.4233 -0.1751
    1W        W67244  24.714   7.633   6.439  0.0228  0.2949  0.1029
    1W        W67245  21.077  28.084   2.381 -0.0017  0.0374 -0.0339
    1W        W67246   3.925   7.151   1.015  0.0246 -0.3283  0.2900
    1W        W67247   8.568  18.960   7.715 -0.0075 -0.1551  0.0321
    1W        W67248  10.480  27.557   7.139  0.2684  0.0716  0.0590
    1W        W67249   4.270  21.448   0.311  0.2338  0.0633  0.0782
    1W        W67250  23.181   4.567   7.750 -0.1241 -0.0695  0.1694
    1W        W67251  16.286  14.277   0.616 -0.0005  0.0792 -0.1759
    1W        W67252  25.365  25.991   8.404  0.0010 -0.0160 -0.1064
    1W        W67253  18.282  18.679   8.962 -0.2296  0.0178 -0.3325
    1W        W67254  29.594   2.331   6.413  0.0598 -0.2994  0.1142
    1W        W67255   0.752   3.262   0.044 -0.1559 -0.0842  0.2115
    1W        W67256   1.439  26.005   7.059 -0.5103  0.0975  0.2091
    1W        W67257  15.806  25.477   2.121  0.1554  0.0402  0.0102
    1W        W67258   8.049   1.973   7.706 -0.3020  0.0345 -0.0480
    1W        W67259   3.963  10.433   8.254 -0.1750  0.0311  0.1502
    1W        W67260  25.669  13.432   0.888 -0.0408  0.0913  0.0898
    1W        W67261   3.441  12.916   1.012 -0.0229  0.3633  0.0443
    1W        W67262   1.601   6.139   8.090 -0.0972 -0.0100 -0.1026
    1W        W67263   5.334  30.061   8.878  0.1752 -0.2942  0.3548
    1W        W67264   2.055  21.679   5.986 -0.0915  0.1713  0.3176
    1W        W67265   1.210   2.919   3.308  0.1772 -0.1501 -0.1858
    1W        W67266  28.627   7.262   6.748 -0.3298 -0.5236  0.1785
    1W        W67267   6.774   8.876   8.219  0.2011 -0.0445 -0.0713
    1W        W67268   0.813  11.345   2.064 -0.1542 -0.0475 -0.1673
    1W        W67269   9.587   9.101   8.205  0.0286  0.1027 -0.3003
    1W        W67270  22.898  18.956   6.948  0.0728 -0.1080  0.3350
    1W        W67271   4.551  18.454   0.923 -0.2535 -0.2383  0.0489
    1W        W67272  18.307  12.692   1.196  0.0403 -0.3548  0.0318
    1W        W67273  18.465   3.941   8.176  0.1382  0.1287  0.1315
    1W        W67274  22.390   7.811   0.028 -0.0468  0.1707 -0.1362
    1W        W67275   3.328   7.769   6.967 -0.2843 -0.0736  0.2542
    1W        W67276  13.907  20.939   8.192 -0.2072  0.2722  0.3754
    1W        W67277  24.033  22.745   7.940 -0.1617  0.0754 -0.2811
    1W        W67278   8.106   5.513   2.978  0.0330  0.0967  0.0716
    1W        W67279   2.107  20.710   0.220 -0.1449 -0.0571  0.1805
    1W        W67280  20.263   7.880   1.741  0.1721  0.4722 -0.3962
    1W        W67281  14.073  14.243   1.466  0.1471  0.0118 -0.2852
    1W        W67282  18.209   3.356   8.686 -0.0015 -0.0214 -0.1238
    1W        W67283  24.708   8.288   7.832 -0.5496  0.0906 -0.0536
    1W        W67284  17.699  11.583   1.541  0.1655  0.1132  0.1315
    1W        W67285  29.845  28.818   2.777  0.1099 -0.2614  0.3721
    1W        W67286  11.589   7.974   8.536  0.3273 -0.1786  0.1080
    1W        W67287  20.431  28.354   1.097  0.0950 -0.1679  0.0847
    1W        W67288  18.372  18.698   0.607  0.1993  0.0509  0.1572
    1W        W67289  20.332  21.461   1.731  0.0120 -0.0059 -0.2254
    1W        W67290  25.239  28.750   8.677 -0.1830  0.0688  0.2798
    1W        W67291  22.153   2.314   9.127 -0.2303  0.0352  0.4097
    1W        W67292   2.518  17.149   8.355  0.1654  0.0514  0.0736
    1W        W67293   3.399  26.971   1.186 -0.2011  0.2823  0.4356
    1W        W67294  21.094  12.988   8.938  0.4225 -0.1243 -0.0978
    1W        W67295  13.140  29.189   8.018  0.0148 -0.0996  0.0405
    1W        W67296  21.876  23.175   8.491 -0.0344 -0.1302 -0.3678
    1W        W67297   1.551  26.769   6.042 -0.0985  0.0527 -0.1403
    1W        W67298  29.779  11.176   0.447 -0.2069 -0.1754  0.0608
    1W        W67299  19.713   5.697   9.143  0.1610 -0.2284  0.5957
    1W        W67300  20.542   7.924   8.773 -0.0171  0.0231  0.1018
    1W        W67301  16.455   1.409   8.098  0.0318 -0.0275  0.0520
    1W        W67302  25.157  12.751   7.807 -0.1651 -0.1963 -0.2798
    1W        W67303  13.428  27.234   6.775 -0.3732  0.0229 -0.2608
    1W        W67304   3.257  19.757   9.218 -0.0677  0.1711 -0.2754
    1W        W67305  13.807   2.519   8.174  0.3441 -0.2757 -0.0030
    1W        W67306  24.944  10.121   7.833  0.0784  0.1744 -0.1245
    1W        W67307  16.572  23.206   1.309  0.2308 -0.1299  0.1293
    1W        W67308  20.793   2.013   8.544  0.1733 -0.0072 -0.1311
    1W        W67309  13.300  25.505   1.736  0.0704 -0.2226 -0.0901
    1W        W67310  12.253  16.865   7.616  0.1580  0.0466 -0.0799
    1W        W67311  25.067   0.355   2.924 -0.1811  0.1415 -0.1489
    1W        W67312  27.312  25.257   1.407 -0.1302  0.5483 -0.2666
    1W        W67313  28.441   8.068   8.626 -0.0265  0.1188 -0.1093
    1W        W67314  22.707  26.848   3.009  0.1450  0.1314  0.1033
    1W        W67315   2.507  10.726   6.485  0.0788  0.0935  0.1174
    1W        W67316  29.782  11.691   1.045 -0.1227  0.1799  0.0245
    1W        W67317  23.960  17.332   0.826 -0.1025 -0.1873 -0.2610
    1W        W67318   4.931  12.327   1.413  0.3278 -0.1056  0.0408
    1W        W67319  11.076   6.817   2.668  0.1589  0.1034 -0.0820
    1W        W67320  29.981   0.678   7.499 -0.0086 -0.1019 -0.0626
    1W        W67321  19.131  12.410   0.776 -0.1877 -0.0602  0.3011
    1W        W67322   6.501  29.784   1.298 -0.3054  0.1374 -0.0695
    1W        W67323  19.074  29.825   3.227  0.0727  0.1107 -0.2156
    1W        W67324  21.652   0.381   6.653  0.1164 -0.0439  0.3978
    1W        W67325  12.134  15.691   8.957 -0.0838  0.1881 -0.1214
    1W        W67326  26.517  23.175   1.823  0.0417  0.1618 -0.0056
    1W        W67327  24.875   0.984   2.020 -0.0136  0.3766  0.2228
    1W        W67328   5.912  15.608   7.555 -0.0493 -0.0922 -0.1355
    1W        W67329  29.065  12.826   1.444 -0.3058  0.0338 -0.0753
    1W        W67330  26.221  18.551   6.043 -0.2088  0.3484  0.0300
    1W        W67331  12.186  23.396   8.824 -0.2369  0.0601 -0.0491
    1W        W67332  28.857  20.840   0.097 -0.1668  0.0893 -0.0517
    1W        W67333   2.991   6.587   8.092  0.0596  0.2500 -0.1140
    1W        W67334  24.034  26.408   3.085  0.3184 -0.0007  0.1676
    1W        W67335   2.512  11.959   5.932  0.0173  0.0317  0.3810
    1W        W67336   2.800   4.180   1.326  0.1821 -0.1456  0.2194
    1W        W67337  13.002  27.883   2.494  0.2017 -0.0802  0.2737
    1W        W67338   3.286   9.096   1.901  0.1521  0.0532  0.0847
    1W        W67339  15.140  17.444   7.673 -0.4447  0.1730  0.0637
    1W        W67340  16.857  20.672   1.531  0.0982  0.0754 -0.1809
    1W        W67341  11.403  17.318   1.417 -0.3664  0.0124  0.0845
    1W        W67342  26.373  29.265   8.223  0.1269 -0.0226  0.4274
    1W        W67343  22.394  13.449   8.764 -0.1579  0.0985 -0.1324
    1W        W67344  13.002  16.286   0.370 -0.0443 -0.2669  0.6307
    1W        W67345  27.022  14.720   8.518 -0.1317 -0.0073 -0.0432
    1W        W67346  26.630  29.468   0.357 -0.1984  0.2317 -0.2049
    1W        W67347  22.442   9.169   1.629  0.0043 -0.1421  0.0997
    1W        W67348   3.984  17.376   5.981 -0.1389 -0.0927 -0.0233
    1W        W67349  23.273   5.072   1.720  0.0328 -0.0671  0.0138
    1W        W67350  11.374   9.957   1.406 -0.0116  0.2059 -0.4638
    1WF      WF67351  13.570  21.102   7.728  0.1421 -0.0825 -0.2475
    1WF      WF67352  29.800  10.071   1.505  0.1378 -0.0688 -0.1662
    1WF      WF67353   9.925  23.171   0.523  0.0320 -0.2665 -0.2293
    1WF      WF67354  11.241   9.706   8.759 -0.0879 -0.4452  0.2324
    1WF      WF67355   6.967   5.959   0.548  0.0065 -0.1223  0.0953
    1WF      WF67356  15.736   4.929   7.790 -0.2053 -0.1496 -0.4029
    1WF      WF67357   9.706   2.203   1.783  0.1708  0.0395 -0.1008
    1WF      WF67358  27.826  29.294   7.990  0.0122 -0.1076  0.1789
    1WF      WF67359  27.496  14.329   9.392  0.2572  0.0434 -0.3168
    1WF      WF67360  24.283  14.901   7.695 -0.3322 -0.2460  0.0817
    1WF      WF67361  27.485   7.044   0.762  0.2946 -0.2559  0.1039
    1WF      WF67362  23.905   6.778   9.067 -0.0662  0.0714 -0.1590
    1WF      WF67363  12.980  12.470   0.251 -0.1155  0.0046  0.0403
    1WF      WF67364  28.228  15.702   8.767 -0.0566  0.1056 -0.1708
    1WF      WF67365  26.711  20.336   8.101  0.1890 -0.0572  0.0587
    1WF      WF67366  23.873   0.746   1.433  0.0420 -0.0819 -0.0768
    1WF      WF67367  13.337  20.537   8.084 -0.0436 -0.0332  0.0481
    1WF      WF67368  23.456   6.931   8.948 -0.2083 -0.0505 -0.0567
    1WF      WF67369   6.705  15.293   8.880 -0.3801 -0.2407  0.2479
    1WF      WF67370   8.324   6.339   2.405  0.0479  0.2357 -0.2319
    1WF      WF67371   1.922  25.018   7.051 -0.1240  0.0614  0.1662
    1WF      WF67372  24.398  29.710   8.165  0.2247  0.0401  0.0557
    1WF      WF67373   1.230   2.541   8.100  0.3741 -0.1378  0.2034
    1WF      WF67374   3.546   9.466   6.516 -0.3053 -0.2407  0.3979
    1WF      WF67375  24.291  29.567   7.686  0.3408 -0.1966 -0.0586
    1WF      WF67376   9.965  26.797   3.300  0.0595  0.1262 -0.1749
    1WF      WF67377   1.630  24.538   9.056 -0.1851  0.3360 -0.2842
    1WF      WF67378   4.648  22.179   8.365  0.1603 -0.0858  0.1971
    1WF      WF67379  26.770  21.755   0.317  0.0065 -0.1029 -0.0327
    1WF      WF67380  26.011  16.870   8.140 -0.0797 -0.0235  0.2629
    1WF      WF67381  18.351   8.902   0.586  0.2076  0.0193  0.2576
    1WF      WF67382   2.549   1.984   8.538  0.0367  0.0797  0.0742
    1WF      WF67383  22.970  12.824   7.705 -0.1451  0.1398  0.1708
    1WF      WF67384  16.639  30.037   9.336  0.0750  0.1297 -0.1332
    1WF      WF67385  19.182   4.453   8.372  0.2059  0.0253  0.0172
    1WF      WF67386  10.413  26.130   0.400 -0.0597  0.0954 -0.0413
    1WF      WF67387  28.698  30.001   7.483 -0.1778  0.4543  0.2961
    1WF      WF67388   9.523  23.418   0.571 -0.0507  0.1567 -0.0229
    1WF      WF67389  10.111   1.068   0.223  0.3807  0.0166  0.3616
    1WF      WF67390  28.916   2.570   6.984 -0.0051 -0.2240  0.0644
    1WF      WF67391  24.485   6.753   3.137  0.0251 -0.2254  0.0486
    1WF      WF67392  18.695   2.385   9.394  0.0597 -0.1141 -0.1799
    1WF      WF67393  13.458   1.789   3.960 -0.1001  0.0918 -0.1629
    1WF      WF67394  12.157  24.129   8.314  0.1629  0.0521  0.0985
    1WF      WF67395   8.373  11.843   2.929 -0.0029  0.0944 -0.0281
    1WF      WF67396  20.271  18.690   8.351  0.0642 -0.3022  0.0490
    1WF      WF67397  29.854  17.356   5.389  0.0520 -0.3981  0.1675
    1WF      WF67398  26.078   6.525   2.663  0.1999  0.2414 -0.1462
    1WF      WF67399  20.757  11.613   8.484 -0.0362  0.1652 -0.0695
    1WF      WF67400  18.850  28.628   9.368 -0.2764  0.0001 -0.1685
    1WF      WF67401   2.021  21.523   6.845  0.3329 -0.2703  0.1264
    1WF      WF67402  24.543  23.971   1.973 -0.4302 -0.2043  0.0153
    1WF      WF67403  19.956  12.333   8.381  0.0294 -0.4629  0.1928
    1WF      WF67404   8.843  29.241   1.841 -0.2316  0.3225 -0.0696
    1WF      WF67405   8.706  15.325   1.971  0.1802  0.0443 -0.1949
    1WF      WF67406   2.604  28.666   0.528 -0.0914  0.1748  0.0339
    1WF      WF67407  28.218  26.027   2.999 -0.0035 -0.1424  0.0565
    1WF      WF67408  22.524  24.862   8.256 -0.1409 -0.0325  0.2686
    1WF      WF67409  16.468   2.566   9.010 -0.0480  0.1056 -0.3721
    1WF      WF67410   4.845   4.000   0.003 -0.0094  0.3253 -0.2200
    1WF      WF67411  22.755  16.517   7.228 -0.0985 -0.1320  0.0893
    1WF      WF67412  12.604  15.523   0.596  0.2141  0.1158 -0.3247
    1WF      WF67413  20.258  18.864   9.281 -0.1333 -0.0233  0.0560
    1WF      WF67414  18.501  15.906   9.019 -0.1924  0.4825 -0.1242
    1WF      WF67415   0.856   2.630   8.445 -0.0964 -0.3541  0.0525
    1WF      WF67416   8.005  23.771   9.023 -0.0098  0.1761 -0.2329
    1WF      WF67417   1.721  17.156   9.059 -0.3315  0.0156  0.1860
    1WF      WF67418  14.029  17.452   1.414  0.0136 -0.0814  0.1226
    1WF      WF67419  26.891  15.614   6.947  0.0593 -0.2517  0.2196
    1WF      WF67420  16.742   2.931   9.302  0.1271 -0.0593 -0.0537
    1WF      WF67421  25.100  26.174   1.256  0.1404  0.4324 -0.0584
    1WF      WF67422   9.996   1.627   2.529  0.0612  0.0458  0.2567
    1WF      WF67423   0.571   4.507   8.316 -0.1991  0.0946 -0.0728
    1WF      WF67424   5.862  18.929   8.826 -0.1576 -0.0393 -0.1436
    1WF      WF67425   3.095  14.650   0.689  0.1894  0.0654 -0.0274
    1WF      WF67426  24.636  15.104   7.400  0.0523 -0.2326  0.3254
    1WF      WF67427  11.740   0.032   2.258 -0.1779  0.2387  0.2272
    1WF      WF67428  28.873  18.408   7.068  0.1449  0.2268 -0.1909
    1WF      WF67429   8.695   4.744   8.391  0.0025  0.0287 -0.1014
    1WF      WF67430   5.770  28.805   1.444  0.1689 -0.0912  0.0991
    1WF      WF67431  23.163  29.488   8.017 -0.0552  0.0890  0.2140
    1WF      WF67432  21.734  17.650   6.371 -0.2767  0.0177 -0.1894
    1WF      WF67433   4.627  22.151   6.485  0.1117 -0.3514  0.2000
    1WF      WF67434   8.329  29.810   8.997 -0.1077 -0.3428 -0.0181
    1WF      WF67435  24.997   9.313   7.298  0.3045 -0.1718  0.3283
    1WF      WF67436  14.201   6.586   0.764  0.3309 -0.2199 -0.1800
    1WF      WF67437   0.684   6.609   8.939  0.0345 -0.1457  0.1907
    1WF      WF67438  19.256  29.561   2.032 -0.0755 -0.0762  0.1616
    1WF      WF67439  28.287  21.869   7.740 -0.1046 -0.1930 -0.3841
    1WF      WF67440  17.343  18.021   7.540  0.0405  0.0835 -0.1546
    1WF      WF67441   1.221  28.886   8.805 -0.1664  0.4933  0.0459
    1WF      WF67442  24.210  14.055   0.694  0.2852 -0.2312 -0.2017
    1WF      WF67443  11.835   3.258   8.597  0.0427  0.0014  0.0465
    1WF      WF67444  11.125  23.247   9.031  0.0064  0.2667  0.3688
    1WF      WF67445  15.934  20.907   9.054  0.0348 -0.0485  0.0759
    1WF      WF67446  24.623  29.070   7.193  0.1304 -0.2224 -0.2720
    1WF      WF67447   7.681  18.065   1.801 -0.1493  0.2244  0.2361
    1WF      WF67448  24.148  10.660   7.363 -0.0683  0.1377  0.0850
    1WF      WF67449  17.177  12.901   0.120 -0.0649  0.0177  0.0365
    1WF      WF67450  17.431  24.269   7.729 -0.1592 -0.0645  0.1724
    1WF      WF67451  29.308  16.993   0.536 -0.4331 -0.0020 -0.0418
    1WF      WF67452   3.782   1.607   8.061 -0.2377  0.1285  0.1296
    1WF      WF67453  23.005  23.472   7.041  0.1349 -0.1136  0.1312
    1WF      WF67454  29.374  22.826   1.088  0.0888 -0.0082 -0.1388
    1WF      WF67455  25.518  11.064   5.423 -0.2654  0.3454 -0.3965
    1WF      WF67456  17.911   1.949   0.463  0.0561  0.2594  0.1343
    1WF      WF67457  24.471   1.990   7.138  0.2298 -0.0344 -0.0453
    1WF      WF67458  22.252  16.139   9.305 -0.2510  0.1804 -0.2200
    1WF      WF67459   9.137  20.995   0.703 -0.2207 -0.0676 -0.1009
    1WF      WF67460   3.342  23.989   7.514  0.0405 -0.0501 -0.0427
    1WF      WF67461  15.263  25.209   8.609  0.0593 -0.0135 -0.1428
    1WF      WF67462   8.393   0.040   6.932 -0.4929  0.2210  0.2648
    1WF      WF67463  25.520  17.682   1.046  0.0870 -0.2787  0.2974
    1WF      WF67464   5.882   7.308   1.395  0.0983 -0.0645 -0.0499
    1WF      WF67465  24.641  18.176   0.037 -0.1565 -0.1812  0.2578
    1WF      WF67466  16.530   8.645   0.584 -0.1800  0.2590  0.0090
    1WF      WF67467   6.518  22.234   0.253  0.0027 -0.1085  0.0075
    1WF      WF67468   7.699   6.994   2.355 -0.0698 -0.0350 -0.1119
    1WF      WF67469  22.756  29.530   0.723  0.1730 -0.2889 -0.2493
    1WF      WF67470  28.222   2.634   5.675 -0.3150 -0.1358  0.0037
    1WF      WF67471  16.086  22.135   2.247  0.1804 -0.3261  0.1752
    1WF      WF67472  27.804   3.911   6.487  0.2078 -0.0108  0.0840
    1WF      WF67473  13.471  27.945   1.862 -0.0078 -0.1305 -0.2875
    1WF      WF67474  19.379  18.938   1.553  0.0690  0.0107 -0.1564
    1WF      WF67475   8.654  29.897   0.036 -0.1450 -0.0677  0.0223
    1WF      WF67476  21.735   6.445   8.833 -0.1941 -0.2289 -0.0072
    1WF      WF67477   0.640  23.444   5.374  0.1725 -0.0428 -0.1323
    1WF      WF67478  14.238  29.674   8.643  0.0041  0.1267 -0.0012
    1WF      WF67479   1.228   6.254   7.482  0.0212 -0.0577  0.0563
    1WF      WF67480  12.123  24.121   1.520  0.2184  0.3529 -0.1505
    1WF      WF67481  22.023   7.164   8.107  0.0713 -0.1073  0.0449
    1WF      WF67482  16.353  21.430   8.308  0.2571  0.2889 -0.1849
    1WF      WF67483  13.353  28.316   1.472  0.0390 -0.0017  0.1156
    1WF      WF67484  28.986   0.650   8.851 -0.2546 -0.0868  0.2210
    1WF      WF67485   3.405  18.128   5.261  0.2193  0.1096 -0.1961
    1WF      WF67486  18.751   6.488   9.067  0.0309  0.0431 -0.0465
    1WF      WF67487  19.621   6.205   8.823 -0.0429 -0.1431 -0.0615
    1WF      WF67488   8.786  16.923   1.408 -0.1940  0.0189 -0.0457
    1WF      WF67489   2.300  10.347   2.048  0.4434 -0.2405 -0.1427
    1WF      WF67490   6.009  21.284   7.435 -0.0950  0.0529  0.4527
    1WF      WF67491   7.976   6.953   0.230  0.0362 -0.0177 -0.2472
    1WF      WF67492  15.940  25.060   1.176  0.2879  0.1153  0.1102
    1WF      WF67493   3.849   6.069   1.142  0.0669  0.1082  0.1656
    1WF      WF67494   8.400  21.441   0.205 -0.0488  0.0201 -0.4964
    1WF      WF67495  24.839  15.561   0.178 -0.2853 -0.1765 -0.0933
    1WF      WF67496  26.972  13.957   5.096 -0.1015  0.0687 -0.1960
    1WF      WF67497  26.144  18.363   6.929  0.0020  0.1638 -0.0797
    1WF      WF67498  16.022   8.812   0.705 -0.2074 -0.2270  0.1209
    1WF      WF67499  18.752   9.897   8.997  0.1766 -0.1817 -0.0002
    1WF      WF67500  15.551   0.241   2.474 -0.1316 -0.3207 -0.2402
    1WF      WF67501  22.696   1.411   7.458 -0.1901  0.0150 -0.2873
    1WF      WF67502   1.760  15.337   6.735 -0.2095 -0.0607 -0.0758
    1WF      WF67503  16.947  24.513   6.977 -0.1823 -0.1519 -0.3061
    1WF      WF67504  20.384  10.433   8.059 -0.2997  0.3035 -0.1777
    1WF      WF67505  24.160  23.781   7.763 -0.0568 -0.1153 -0.1497
    1WF      WF67506  23.308   4.015   1.615 -0.1301 -0.1168  0.2150
    1WF      WF67507   0.173  20.975   8.249 -0.2830 -0.1354  0.2841
    1WF      WF67508   5.092  28.460   0.970 -0.0389  0.2102 -0.1344
    1WF      WF67509  26.076  12.977   8.610  0.0816 -0.1347 -0.0506
    1WF      WF67510  29.244  19.561   7.798  0.0080  0.0383  0.0796
    1WF      WF67511  23.403   0.796   8.236 -0.1121  0.0909  0.0992
    1WF      WF67512  10.551  10.270   3.180  0.1430  0.0614 -0.5044
    1WF      WF67513  25.408   3.225   7.227  0.0829 -0.0084 -0.0477
    1WF      WF67514  12.427   8.312   3.782 -0.0552 -0.0274 -0.0328
    1WF      WF67515   3.056  13.015   8.124  0.0475 -0.0249  0.1707
    1WF      WF67516  29.552  23.000   9.191 -0.1146  0.0975  0.2439
    1WF      WF67517   8.694  28.741   1.986 -0.0283 -0.2156 -0.0480
    1WF      WF67518   4.096   0.371   2.215  0.1799 -0.2545  0.2763
    1WF      WF67519  22.164   9.499   7.988 -0.2331 -0.1583 -0.0738
    1WF      WF67520  18.569  27.044   0.983 -0.1417 -0.0551  0.0913
    1WF      WF67521   7.498   5.709   7.476  0.2085 -0.5661 -0.1826
    1WF      WF67522  22.180  11.162   6.521  0.4083  0.0602 -0.2335
    1WF      WF67523   5.359   1.128   2.298 -0.0485 -0.0563  0.0740
    1WF      WF67524  15.578  23.475   0.847  0.0963 -0.0731  0.1857
    1WF      WF67525  15.391  10.610   0.301 -0.1909  0.0050  0.1676
    1WF      WF67526   3.674   3.256   7.091  0.1628 -0.0653 -0.2118
    1WF      WF67527  16.730  25.497   0.751  0.2287 -0.1640 -0.0704
    1WF      WF67528  22.982   0.782   1.723  0.2637 -0.0409  0.1206
    1WF      WF67529  13.019  14.374   0.008 -0.1795  0.0170 -0.0066
    1WF      WF67530   8.607   1.463   8.984  0.1016 -0.2698  0.1323
    1WF      WF67531  29.403   9.773   8.751 -0.2404  0.3028 -0.0880
    1WF      WF67532  22.542   5.582   8.310 -0.0351  0.0463  0.1379
    1WF      WF67533   0.573  25.382   1.690 -0.4584 -0.2453 -0.1332
    1WF      WF67534  25.298  20.411   7.047  0.5084 -0.2845 -0.4956
    1WF      WF67535   0.337   0.482   0.466  0.0332  0.2426  0.2777
    1WF      WF67536  25.187  11.484   5.631  0.1900 -0.0913  0.0559
    1WF      WF67537   5.501  13.442   1.011  0.2757  0.2393 -0.0807
    1WF      WF67538  23.254   9.416   2.376 -0.0701  0.0173 -0.0624
    1WF      WF67539  10.866   6.162   8.074 -0.3059  0.1741 -0.0296
    1WF      WF67540  11.318  19.642   8.693  0.1977  0.1426  0.2197
    1WF      WF67541   1.503   8.956   7.148  0.3805 -0.0793  0.1097
    1WF      WF67542  30.022  16.138   1.847 -0.0057 -0.2005 -0.1347
    1WF      WF67543  12.037   7.253   0.729  0.2250 -0.1261  0.3721
    1WF      WF67544   8.407  22.374   8.149 -0.2232 -0.2648 -0.0017
    1WF      WF67545  27.648   8.444   9.304 -0.0171  0.1683 -0.1812
    1WF      WF67546   1.923  23.764   0.913  0.0191  0.0545  0.0583
    1WF      WF67547  21.944  22.694   8.946 -0.1738 -0.0523  0.1199
    1WF      WF67548  24.619  20.049   0.286  0.1362  0.0230 -0.1906
    1WF      WF67549  17.076  24.197   1.064  0.2013  0.0266  0.0662
    1WF      WF67550  29.418  18.295   0.673 -0.0478  0.0998 -0.0066
    1WF      WF67551   2.361  16.292   7.934  0.1053  0.4064  0.2805
    1WF      WF67552  12.078   9.664   0.408 -0.0537 -0.0540  0.2257
    1WF      WF67553  13.087  29.730   0.930 -0.0616  0.3926 -0.1386
    1WF      WF67554  11.459  24.579   8.359  0.1329 -0.2120  0.0575
    1WF      WF67555  27.369  12.256   7.358 -0.2772 -0.4274 -0.0225
    1WF      WF67556  20.867   2.490   0.444  0.2613  0.0597 -0.3481
    1WF      WF67557   5.182  14.584   7.125 -0.1372 -0.0537  0.0087
    1WF      WF67558  25.740  23.723   1.188  0.2281 -0.1407  0.2610
    1WF      WF67559   3.048   0.821   2.784  0.0312 -0.0556  0.0140
    1WF      WF67560  22.052  20.738   9.022 -0.0235  0.0929 -0.1440
    1WF      WF67561  20.688  24.262   1.798 -0.0512 -0.1057  0.3160
    1WF      WF67562  11.328  16.006   8.213 -0.0761  0.2890 -0.0741
    1WF      WF67563  28.048  27.053   9.089  0.0613  0.2013  0.1789
    1WF      WF67564   1.844  23.973   0.496  0.0806 -0.0071  0.2499
    1WF      WF67565   9.225  12.452   2.018  0.3586  0.2053  0.0788
    1WF      WF67566  27.390   0.513   0.334  0.0732  0.0956 -0.2033
    1WF      WF67567   2.596   0.627   2.899 -0.0692  0.4505 -0.0946
    1WF      WF67568   2.154   0.116   1.745  0.1112 -0.4713  0.3212
    1WF      WF67569   9.709  10.938   8.043  0.0764  0.1462 -0.0678
    1WF      WF67570   1.857  19.265   7.767 -0.1134  0.0024  0.0846
    1WF      WF67571   5.071  24.848   9.226  0.1057  0.0585  0.2363
    1WF      WF67572  25.745  23.779   1.791  0.0854  0.0643  0.4308
    1WF      WF67573  12.444  26.795   8.911 -0.1286  0.1960  0.1535
    1WF      WF67574  13.564   5.069   2.069  0.2210 -0.3227  0.2111
    1WF      WF67575  10.342   0.820   9.274 -0.0059  0.0309  0.0734
    1WF      WF67576  24.829  28.038   1.519 -0.0318  0.0510 -0.2020
    1WF      WF67577  29.946  13.012   5.375 -0.1590 -0.0465 -0.0176
    1WF      WF67578  15.457   4.078   8.639  0.0766  0.2977 -0.1077
    1WF      WF67579  28.489  18.373   0.068 -0.0696 -0.4307  0.2305
    1WF      WF67580   1.642   2.496   9.191 -0.1034 -0.1354 -0.3379
    1WF      WF67581  29.533  26.254   0.460  0.3178 -0.0324  0.0223
    1WF      WF67582  10.065  25.060   9.083 -0.1788  0.1140  0.1349
    1WF      WF67583   8.462   6.364   8.856 -0.1852  0.2310 -0.0031
    1WF      WF67584   7.037  18.862   8.225 -0.0105 -0.1432 -0.1388
    1WF      WF67585  24.865   7.386   1.206  0.0082 -0.1615  0.1597
    1WF      WF67586  10.131   2.693   0.306  0.0130 -0.0774  0.0013
    1WF      WF67587  14.081  17.120   1.029 -0.1330  0.0755  0.0920
    1WF      WF67588  20.619   2.206   0.076  0.1786  0.2402  0.1847
    1WF      WF67589  25.767   2.515   8.614 -0.1441 -0.1163  0.2198
    1WF      WF67590  16.121   7.279   1.188  0.0016 -0.0035 -0.1474
    1WF      WF67591  16.438  24.611   6.773 -0.2582  0.0632  0.1014
    1WF      WF67592   1.967   5.552   6.160 -0.1629  0.1074  0.0001
    1WF      WF67593  19.085  13.364   0.873 -0.1731  0.0071  0.1199
    1WF      WF67594  13.716  25.314   2.793  0.2244  0.0562 -0.1423
    1WF      WF67595  24.852  30.037   8.365  0.1944  0.1236  0.1807
    1WF      WF67596   1.943  15.244   6.243  0.0175  0.1880  0.0211
    1WF      WF67597   6.674   9.401   8.723 -0.2337  0.2353  0.0991
    1WF      WF67598  24.366  20.776   0.316 -0.0147 -0.2868 -0.0526
    1WF      WF67599  18.702   1.162   1.533  0.2881  0.1905 -0.0119
    1WF      WF67600   9.911  17.525   1.250 -0.4308  0.2733 -0.1173
    1WF      WF67601  24.036   8.854   8.785  0.0091 -0.3481  0.0531
    1WF      WF67602   8.060   5.978   8.655  0.3236 -0.0874 -0.0953
    1WF      WF67603  27.639  11.829   7.390  0.1669  0.0968  0.0065
    1WF      WF67604  25.941  21.298   0.026 -0.0379 -0.0648 -0.0975
    1WF      WF67605  18.219  21.414   7.442  0.1199 -0.2308 -0.0995
    1WF      WF67606   7.560  21.148   8.035 -0.1275 -0.3823  0.2135
    1WF      WF67607  16.423  16.348   1.820 -0.0174  0.1572  0.2579
    1WF      WF67608   8.075  25.716   1.504 -0.2037  0.1135  0.4070
    1WF      WF67609  23.012  29.898   7.727  0.0041 -0.0079  0.5338
    1WF      WF67610   7.531   7.385   2.104 -0.3461  0.1354  0.0202
    1WF      WF67611   9.075   0.428   8.433  0.2522  0.0992  0.3664
    1WF      WF67612   8.135  19.767   8.174 -0.2367 -0.0973  0.0396
    1WF      WF67613  11.107  13.483   2.951  0.2946  0.0607 -0.1982
    1WF      WF67614   1.024  22.748   7.136  0.0429 -0.0635  0.0474
    1WF      WF67615  17.888  21.804   7.598 -0.1935  0.0268 -0.3099
    1WF      WF67616   4.795  25.302   0.558  0.2959  0.0337 -0.1516
    1WF      WF67617  20.611  23.385   9.204  0.0348 -0.0484 -0.0754
    1WF      WF67618  26.475   9.782   0.687  0.1130 -0.4879  0.1543
    1WF      WF67619   6.610  23.707   7.634 -0.0778  0.1100  0.2219
    1WF      WF67620  24.085  22.282   0.365  0.2909  0.0921  0.1728
    1WF      WF67621  25.660   8.267   0.980 -0.2670 -0.0317 -0.1631
    1WF      WF67622   7.932  23.572   0.596 -0.2655 -0.0699  0.2597
    1WF      WF67623  16.174   8.763   9.102  0.2207  0.2634 -0.2717
    1WF      WF67624  20.126  12.023   7.949 -0.1809  0.0625 -0.2268
    1WF      WF67625  11.143  17.031   0.390 -0.0584 -0.0023 -0.4051
    1WF      WF67626  18.936  19.187   0.396 -0.1063  0.3472  0.2297
    1WF      WF67627  24.881  22.801   0.824  0.0569  0.3521 -0.1658
    1WF      WF67628   8.538   0.412   8.643  0.1008  0.0755  0.0001
    1WF      WF67629   9.471  27.186   1.685  0.1936  0.1762 -0.1633
    1WF      WF67630  27.880   3.645   0.301  0.1846 -0.1584  0.0631
    1WF      WF67631  23.110   6.645   2.312  0.0967 -0.2953  0.1808
    1WF      WF67632  25.488  18.223   7.183  0.0464  0.3722  0.2312
    1WF      WF67633  28.262   0.453   8.534 -0.2448  0.0760  0.1292
    1WF      WF67634   1.407  19.449   6.518 -0.0323 -0.0533  0.1720
    1WF      WF67635  11.623  27.494   8.634  0.2988 -0.0060  0.0977
    1WF      WF67636  27.359  23.902   8.222 -0.1224 -0.1109  0.3457
    1WF      WF67637  11.781  10.059   0.420 -0.2013 -0.1727 -0.0755
    1WF      WF67638  26.899   9.493   7.731 -0.2762  0.1393 -0.1489
    1WF      WF67639  20.781  20.611   9.314 -0.1247  0.0882  0.3862
    1WF      WF67640   3.523   0.936   9.298  0.1528 -0.1636  0.0386
    1WF      WF67641  18.713  14.692   0.410  0.2361  0.0569  0.1698
    1WF      WF67642  10.109  10.590   2.733 -0.0920  0.0057  0.1529
    1WF      WF67643  29.088   6.051   1.192  0.1019  0.1325  0.1865
    1WF      WF67644  12.153  29.315   3.420 -0.1075 -0.0043 -0.1230
    1WF      WF67645   6.556  20.092   7.227 -0.1005 -0.0309  0.2151
    1WF      WF67646  13.317   5.559   1.982  0.2598 -0.0327 -0.0660
    1WF      WF67647  25.644   4.519   1.274  0.1506  0.1515  0.0847
    1WF      WF67648  15.214  10.161   1.982  0.0800  0.1714 -0.0810
    1WF      WF67649  15.381  14.637   9.248 -0.1053 -0.1150  0.3147
    1WF      WF67650   9.509  13.933   9.129  0.0293 -0.2608  0.1960
    1WF      WF67651  22.063   1.974   1.493 -0.1037  0.1067 -0.2507
    1WF      WF67652  28.664  21.265   0.454 -0.1827 -0.1892  0.0058
    1WF      WF67653   0.164  28.758   2.403  0.0736  0.2279  0.2292
    1WF      WF67654  22.096   3.297   7.504  0.0852 -0.1331  0.0173
    1WF      WF67655  15.215  26.975   8.927  0.4485 -0.2325 -0.0194
    1WF      WF67656  20.760   4.211   8.634 -0.0335  0.1553  0.2102
    1WF      WF67657   6.460   5.053   8.464 -0.0974 -0.1482 -0.3581
    1WF      WF67658  29.185  10.395   7.141  0.0691  0.0447 -0.0514
    1WF      WF67659   8.231  13.222   7.027 -0.0494  0.1429  0.2684
    1WF      WF67660   2.050  10.026   0.068 -0.1110 -0.0602  0.0701
    1WF      WF67661  19.078  17.089   9.065 -0.1627  0.0256  0.0933
    1WF      WF67662  29.881   3.572   3.045  0.2337  0.2496  0.0864
    1WF      WF67663   8.396  17.289   9.018  0.1600 -0.1782 -0.1019
    1WF      WF67664  23.321  28.962   8.978 -0.2032  0.1175  0.0262
    1WF      WF67665  27.518  26.431   8.222 -0.2537  0.0703 -0.1548
    1WF      WF67666  21.008  12.007   8.771  0.0173 -0.1311 -0.1292
    1WF      WF67667  28.601   5.706   9.191  0.1870  0.0293  0.1699
    1WF      WF67668  11.241  13.157   8.770  0.0563 -0.1297 -0.1877
    1WF      WF67669  11.667  19.197   7.312 -0.0575  0.2970 -0.0614
    1WF      WF67670  12.399  21.286   2.627 -0.2710 -0.3669 -0.3183
    1WF      WF67671  17.468  24.058   0.457 -0.2381  0.3241 -0.1689
    1WF      WF67672  26.901  12.493   7.493  0.1902  0.0158  0.0457
    1WF      WF67673  11.794  27.957   7.761  0.0641  0.0800 -0.0250
    1WF      WF67674  27.200   6.809   2.848 -0.0949  0.2749  0.0886
    1WF      WF67675  24.661  20.417   8.017 -0.1170  0.1736  0.0086
    1WF      WF67676   1.768  21.012   0.733 -0.2163 -0.0249  0.0294
    1WF      WF67677   2.989   4.695   7.959  0.1053 -0.0307  0.2777
    1WF      WF67678   9.134   1.130   3.117  0.1558 -0.0949  0.0352
    1WF      WF67679  12.786  23.394   0.164  0.2571  0.2521  0.4298
    1WF      WF67680   8.177  19.859   7.029  0.1509 -0.2386 -0.1529
    1WF      WF67681   7.061  13.320   8.430 -0.0440  0.1499 -0.0707
    1WF      WF67682  13.151   1.369   2.122 -0.1890  0.1720  0.1060
    1WF      WF67683   6.025  11.747   0.033 -0.3341 -0.2224 -0.1152
    1WF      WF67684  11.625   4.670   7.649  0.0283  0.4038  0.2227
    1WF      WF67685  12.369  14.786   0.688  0.2215 -0.2291  0.1876
    1WF      WF67686  16.995   5.243   1.660  0.1412  0.0396 -0.3196
    1WF      WF67687  22.555  18.090   9.035  0.3111 -0.2302 -0.0368
    1WF      WF67688  23.431   0.530   1.384  0.0354  0.0747  0.2450
    1WF      WF67689   4.240  28.239   0.149 -0.2872 -0.1123 -0.3066
    1WF      WF67690   5.513  11.518   2.980  0.2591  0.0724 -0.0368
    1WF      WF67691  16.742   6.498   8.618  0.1536  0.1292  0.1002
    1WF      WF67692  24.169   5.197   0.435  0.4018  0.1097  0.0201
    1WF      WF67693  24.077  20.628   9.287 -0.0806  0.4376  0.2061
    1WF      WF67694   9.079  16.171   0.805  0.0493  0.0073  0.1491
    1WF      WF67695   1.066  12.962   2.278 -0.4042  0.1646 -0.1150
    1WF      WF67696  19.932  28.464   7.748 -0.0704 -0.1859  0.1633
    1WF      WF67697  20.045  18.006   1.192 -0.1605 -0.0292 -0.0927
    1WF      WF67698  21.637  23.895   7.712 -0.0241 -0.0116 -0.2596
    1WF      WF67699  10.827   8.135   9.196 -0.3859  0.3190  0.1248
    1WF      WF67700  19.548   3.407   2.652  0.0170  0.0160  0.3711
    1WF      WF67701   4.627   3.480   0.791 -0.1272  0.5615 -0.2608
    1WF      WF67702  19.454  24.193   8.580 -0.0642  0.3158 -0.0586
    1WF      WF67703   8.039   7.309   2.191 -0.0720 -0.0278  0.1400
    1WF      WF67704  25.515  19.962   0.262 -0.1100 -0.0202 -0.1119
    1WF      WF67705  24.089  12.735   9.047 -0.2226  0.0534 -0.0619
    1WF      WF67706  17.719  16.953   8.272  0.2028  0.3219  0.2140
    1WF      WF67707  27.960   0.035   8.827 -0.2206 -0.1861  0.4404
    1WF      WF67708   2.445  10.196   1.623  0.0996  0.2066 -0.1593
    1WF      WF67709  18.348   5.893   1.080  0.0584 -0.0052 -0.0350
    1WF      WF67710   0.696   0.313   8.779 -0.1510  0.3028  0.2334
    1WF      WF67711  26.281  29.034   8.767  0.3812  0.0477  0.0148
    1WF      WF67712   0.842  25.067   1.396 -0.2788  0.0003 -0.4739
    1WF      WF67713  10.782  21.307   9.201  0.1840  0.0279  0.2270
    1WF      WF67714  20.546  17.049   0.539 -0.1390  0.2489 -0.1201
    1WF      WF67715   8.378  30.120   1.598 -0.2941 -0.1545  0.0079
    1WF      WF67716   8.192   4.550   3.102  0.0218  0.0766 -0.2127
    1WF      WF67717  29.529   4.699   1.188  0.0664  0.0076  0.1922
    1WF      WF67718  17.047  10.517   1.020 -0.0922 -0.1308 -0.0048
    1WF      WF67719  21.466  23.935   1.520 -0.0007 -0.1128  0.1308
    1WF      WF67720  20.931   3.823   0.753  0.0174 -0.2152 -0.1422
    1WF      WF67721  29.985  23.276   0.055 -0.1754 -0.0142 -0.3037
    1WF      WF67722   0.874   9.140   1.295 -0.2664  0.1591  0.1492
    1WF      WF67723   8.105  11.372   0.646  0.0026  0.3790 -0.1286
    1WF      WF67724  21.556  19.671   1.503  0.1503 -0.0300 -0.2431
    1WF      WF67725   0.304  21.435   8.454  0.3199 -0.1080  0.2173
    1WF      WF67726  15.818  22.377   8.775 -0.1857 -0.1038 -0.2207
    1WF      WF67727  13.193  25.810   9.316  0.2985  0.1921  0.0596
    1WF      WF67728  21.259   0.306   2.391 -0.1842 -0.0091 -0.1461
    1WF      WF67729  26.908  14.685   0.916 -0.0535 -0.2125 -0.0355
    1WF      WF67730   2.433  10.087   2.558  0.2517 -0.0386 -0.0455
    1WF      WF67731  24.588  16.031   2.174  0.0114 -0.2835  0.0848
    1WF      WF67732  29.230  24.242   7.625  0.0561  0.2197 -0.2335
    1WF      WF67733   2.882  11.272   1.262 -0.1263 -0.1448  0.1228
    1WF      WF67734  14.192  18.219   9.381 -0.1715 -0.3421 -0.1471
    1WF      WF67735   7.690   4.678   8.191  0.0652  0.1150 -0.2626
    1WF      WF67736  27.992   1.652   1.438 -0.1409 -0.1520 -0.2165
    1WF      WF67737  17.133   5.901   6.710  0.0724 -0.0944 -0.1886
    1WF      WF67738  12.725   4.029   1.794 -0.0162 -0.0210  0.0642
    1WF      WF67739  27.174  14.660   9.237 -0.0096 -0.2045  0.2667
    1WF      WF67740  10.865   2.021   7.883  0.0063 -0.1636  0.0691
    1WF      WF67741  12.388   2.311   2.762  0.1648  0.2733  0.4504
    1WF      WF67742  18.653  18.425   7.184 -0.2612 -0.1485 -0.2066
    1WF      WF67743   4.631  25.550   0.189 -0.1289 -0.5620  0.2438
    1WF      WF67744  27.656  17.929   7.114  0.0753 -0.3830  0.1843
    1WF      WF67745  25.379  18.037   8.406  0.2459 -0.2248 -0.0393
    1WF      WF67746  20.195   9.636   8.894  0.0022  0.0212 -0.3803
    1WF      WF67747  17.344  24.375   8.244 -0.1436 -0.0706 -0.2205
    1WF      WF67748  15.616  12.688   9.158 -0.1058  0.2605 -0.1158
    1WF      WF67749   7.925  16.737   8.182 -0.1076 -0.0862  0.1343
    1WF      WF67750  26.199  27.195   6.380  0.2359 -0.0292 -0.1836
    1WF      WF67751  22.371  22.772   9.288  0.1928  0.3148 -0.2210
    1WF      WF67752  23.917   4.331   8.774  0.1417  0.1359  0.4761
    1WF      WF67753  21.115  22.054   8.208  0.1048  0.0141  0.2550
    1WF      WF67754  20.863  24.285   6.765 -0.1185 -0.2824  0.1825
    1WF      WF67755  19.111  20.041   0.072  0.0104 -0.4142 -0.3134
    1WF      WF67756   5.690   9.022   1.405  0.0479 -0.0285  0.1107
    1WF      WF67757   9.502  12.039   2.206 -0.0697  0.0293  0.3186
    1WF      WF67758  11.869  24.200   0.517  0.0753  0.0299 -0.1276
    1WF      WF67759  17.307   5.303   2.092  0.0098  0.2818  0.0649
    1WF      WF67760   4.742  18.771   1.470 -0.2887  0.2535 -0.1391
    1WF      WF67761  29.098  26.564   1.143 -0.2659  0.3025  0.2845
    1WF      WF67762  14.241  24.428   2.319  0.2272 -0.1030  0.0008
    1WF      WF67763  23.204  23.905   1.542 -0.0501 -0.0883 -0.1202
    1WF      WF67764  17.441   2.015   0.680  0.2728 -0.0265 -0.0199
    1WF      WF67765   8.682  29.904   0.584  0.1057 -0.1982 -0.1195
    1WF      WF67766   4.370  23.411   5.825 -0.0518  0.1698 -0.0623
    1WF      WF67767   9.853  19.415   7.676  0.3377 -0.0668  0.0352
    1WF      WF67768   3.045  25.827   1.216 -0.1594 -0.4806 -0.1817
    1WF      WF67769  21.510   6.013   8.656  0.1407  0.2448  0.0445
    1WF      WF67770  22.469  17.244   0.316  0.0079  0.2600 -0.3965
    1WF      WF67771  23.166  10.892   1.033 -0.1733  0.1451 -0.1627
    1WF      WF67772  15.458   3.567   8.501 -0.0506  0.3566  0.0700
    1WF      WF67773   5.224  13.797   0.072 -0.1478  0.3594  0.3613
    1WF      WF67774  15.326   0.367   8.797 -0.3505  0.2189  0.1655
    1WF      WF67775  23.410  17.952   8.689 -0.1907  0.0115 -0.2031
    1WF      WF67776  13.620  15.986   6.754 -0.0712  0.2570  0.2405
    1WF      WF67777  15.132  22.508   8.074  0.0545 -0.0784 -0.1035
    1WF      WF67778  28.441  23.320   9.223 -0.0264  0.0290  0.1397
    1WF      WF67779   9.541   7.114   0.279  0.0583  0.0858 -0.3407
    1WF      WF67780   6.266   8.043   0.591  0.0812  0.0761  0.0937
    1WF      WF67781   4.725  26.594   8.684 -0.1128 -0.2401  0.1385
    1WF      WF67782   6.281   8.463   8.015 -0.4576  0.0343  0.1600
    1WF      WF67783  23.788   1.127   8.396 -0.1168 -0.0631  0.0886
    1WF      WF67784  11.908  18.540   8.817  0.1794  0.1396 -0.0972
    1WF      WF67785   0.052  16.738   8.139 -0.3041  0.1234  0.0451
    1WF      WF67786  24.964  16.496   6.882 -0.2358  0.1949 -0.0681
    1WF      WF67787  26.549  17.262   8.772 -0.0671 -0.1864  0.0520
    1WF      WF67788   8.777   1.266   3.444  0.0299  0.2286  0.2598
    1WF      WF67789  21.486  25.039   7.526 -0.0525 -0.0524  0.1131
    1WF      WF67790  19.166   3.026   9.116 -0.2243  0.1864 -0.2342
    1WF      WF67791  29.996  24.301   8.555  0.0371  0.2012 -0.2866
    1WF      WF67792  15.519  18.352   0.521  0.1647  0.0746 -0.0620
    1WF      WF67793  22.042   2.382   1.757 -0.3515 -0.0605 -0.0229
    1WF      WF67794  16.706   7.359   9.102 -0.1885  0.0587  0.0360
    1WF      WF67795  12.134  12.647   1.412 -0.0911  0.2046 -0.3890
    1WF      WF67796  27.121  16.133   0.374  0.1850 -0.1375 -0.1517
    1WF      WF67797  13.791   7.597   0.180  0.0021 -0.4593  0.0778
    1WF      WF67798  16.397  29.970   8.952  0.2345 -0.3826 -0.0327
    1WF      WF67799   4.460   0.459   1.861 -0.2297  0.0120 -0.0823
    1WF      WF67800   8.208   2.740   0.981 -0.1036 -0.1307 -0.0635
    1WF      WF67801   7.394  10.318   1.675  0.2134 -0.2118  0.0452
    1WF      WF67802   5.804   0.794   1.132  0.1943 -0.0625 -0.1201
    1WF      WF67803   6.716   8.616   1.655  0.0203  0.0908  0.2727
    1WF      WF67804  23.732  27.600   0.268 -0.0588 -0.0649  0.3967
    1WF      WF67805  12.867  15.852   0.912 -0.1623  0.0591 -0.2572
    1WF      WF67806  27.532   5.635   1.577 -0.2524  0.0172  0.2612
    1WF      WF67807  28.432  28.149   8.771 -0.0140 -0.0688 -0.0976
    1WF      WF67808   0.592  15.492   5.760 -0.2758 -0.1347 -0.0791
    1WF      WF67809   2.541  14.644   8.393 -0.2996  0.1324 -0.0424
    1WF      WF67810  16.849  12.190   0.745 -0.0801 -0.0600 -0.2103
    1WF      WF67811   0.355   8.189   0.158  0.1566  0.0843 -0.1018
    1WF      WF67812   3.546  22.700   8.323  0.0458  0.3856  0.0702
    1WF      WF67813   1.864  28.647   8.209  0.1748 -0.3929 -0.0181
    1WF      WF67814   0.848  13.482   9.153 -0.1884 -0.0259  0.2050
    1WF      WF67815  24.327  17.126   2.156 -0.3109  0.1607  0.2647
    1WF      WF67816   3.052  27.292   6.288 -0.1491  0.2763 -0.0579
    1WF      WF67817  13.746   3.286   2.084  0.2079  0.1344 -0.1603
    1WF      WF67818   9.727  27.226   3.394  0.0252  0.1311  0.0558
    1WF      WF67819   7.079  10.419   2.092  0.0825 -0.1143 -0.0552
    1WF      WF67820   2.126  23.912   0.034 -0.1537 -0.2542 -0.0825
    1WF      WF67821  13.248  15.407   0.888 -0.0439 -0.1943 -0.1352
    1WF      WF67822  22.056  13.323   5.982 -0.0176  0.1385 -0.0135
    1WF      WF67823  13.156  16.167   9.172 -0.1210  0.0656  0.1048
    1WF      WF67824   5.017  26.204   2.298 -0.0041  0.0890  0.0247
    1WF      WF67825   4.647   6.602   0.732  0.3401 -0.2263 -0.1072
    1WF      WF67826   7.302  10.664   8.895  0.1081  0.0350  0.0047
    1WF      WF67827  14.084  10.155   8.973  0.1043  0.1342  0.2243
    1WF      WF67828   1.091  24.417   8.994 -0.0379  0.2072  0.3646
    1WF      WF67829  22.974  16.555   6.099  0.0124 -0.4564 -0.1091
    1WF      WF67830  27.220   6.612   0.651 -0.0175  0.0813  0.1506
    1WF      WF67831   2.034  15.684   8.541  0.0331 -0.3085 -0.3364
    1WF      WF67832   7.713  23.352   8.976 -0.3642  0.2039  0.2304
    1WF      WF67833  29.001   4.529   8.150 -0.2422 -0.2677  0.1404
    1WF      WF67834   7.716   2.649   0.929  0.1132  0.0958  0.1561
    1WF      WF67835   1.939  18.740   9.011  0.0985 -0.1982  0.1860
    1WF      WF67836   6.635  16.622   8.643 -0.0927 -0.1611 -0.0723
    1WF      WF67837  14.056  18.512   1.185  0.0372  0.2043  0.3655
    1WF      WF67838   8.401   9.439   1.292 -0.0962 -0.0589  0.1423
    1WF      WF67839  19.120  29.639   9.017  0.0974  0.1476  0.2376
    1WF      WF67840  19.443   4.944   8.411  0.2133 -0.0553  0.0084
    1WF      WF67841   9.587  25.341   1.411  0.1462  0.0146  0.2051
    1WF      WF67842   0.240  28.919   0.833 -0.2183  0.1252 -0.3344
    1WF      WF67843  10.952  15.673   0.267  0.1916  0.1576  0.1017
    1WF      WF67844  27.867  17.508   7.061  0.0660 -0.1231  0.1138
    1WF      WF67845  18.267  28.425   0.379 -0.2019 -0.0113 -0.1666
    1WF      WF67846   2.072  26.846   0.655 -0.2852  0.0623 -0.2095
    1WF      WF67847  13.070  25.164   0.563  0.2581  0.2401 -0.0504
    1WF      WF67848   8.675  29.726   1.713  0.0700  0.2355 -0.2522
    1WF      WF67849  29.808  24.835   1.564 -0.1678  0.1031  0.0999
    1WF      WF67850  14.925  23.152   2.610  0.0801  0.1311 -0.0552
    1WF      WF67851   4.294  12.576   7.901  0.0901  0.2350  0.0082
    1WF      WF67852  29.915   6.156   0.976 -0.0162  0.0546 -0.2962
    1WF      WF67853  26.997  14.937   1.504  0.3698 -0.0593 -0.2073
    1WF      WF67854  19.570  26.734   0.766 -0.1607 -0.2386 -0.1995
    1WF      WF67855  15.259   3.106   2.648 -0.0636 -0.0280 -0.1379
    1WF      WF67856  29.555  18.253   0.132  0.1538  0.1625  0.1893
    1WF      WF67857  20.719   4.525   1.281 -0.1971  0.0693  0.0447
    1WF      WF67858  18.071  20.427   9.123 -0.0827 -0.0537 -0.0459
    1WF      WF67859  29.710   2.717   6.908 -0.0092  0.0278 -0.1606
    1WF      WF67860  23.257  28.660   8.571  0.1740 -0.1888  0.1734
    1WF      WF67861   4.508  10.651   8.815  0.3504 -0.0566  0.1262
    1WF      WF67862   0.554  24.999   7.954  0.0626  0.1350 -0.2602
    1WF      WF67863   9.863   2.325   1.266 -0.0561  0.1436  0.1010
    1WF      WF67864  22.418  12.579   9.022 -0.2078  0.3253 -0.1246
    1WF      WF67865  18.474   2.460   1.833  0.3053  0.1400 -0.2241
    1WF      WF67866   7.378  14.895   8.346 -0.2490  0.2061  0.0949
    1WF      WF67867   0.009  21.265   7.760  0.1014  0.0117 -0.2604
    1WF      WF67868  10.608   2.726   0.405  0.0430  0.0864 -0.0776
    1WF      WF67869  24.073   3.530   0.134  0.1177  0.2706 -0.3879
    1WF      WF67870  16.250  12.517   1.810  0.0197  0.1102  0.1699
    1WF      WF67871  10.363   7.852   9.094 -0.2124 -0.2675  0.0916
    1WF      WF67872  27.006   6.728   6.955 -0.0602  0.1775  0.1064
    1WF      WF67873  24.948  27.451   1.627  0.1897 -0.1814 -0.0951
    1WF      WF67874  21.057  20.408   0.305  0.0535 -0.2004 -0.0937
    1WF      WF67875  22.474  13.121   0.278  0.0600 -0.0193 -0.2153
    1WF      WF67876  12.470   4.921   8.545 -0.1076  0.1659 -0.2576
    1WF      WF67877  30.116  20.918   2.510  0.1357  0.1694 -0.1335
    1WF      WF67878  14.666   5.849   3.043  0.1110  0.2256  0.2711
    1WF      WF67879  13.268   2.001   9.289  0.1531  0.1821  0.4720
    1WF      WF67880  16.730  26.792   1.715 -0.4119  0.0114  0.1470
    1WF      WF67881  10.345   2.458   0.721 -0.2067  0.1842 -0.2142
    1WF      WF67882  16.771   6.878   8.990 -0.2738 -0.0084  0.2049
    1WF      WF67883   0.101  17.212   6.211 -0.2577  0.1496 -0.1401
    1WF      WF67884  10.310  15.296   0.963 -0.4124  0.1694 -0.2284
    1WF      WF67885  17.086   6.811   1.485  0.2664 -0.0011  0.0641
    1WF      WF67886  17.001  13.467   0.134 -0.1209 -0.0439  0.0083
    1WF      WF67887  27.008  17.369   5.688  0.1600 -0.0019 -0.2788
    1WF      WF67888  14.768  14.937   8.742  0.1192 -0.0058 -0.0360
    1WF      WF67889  12.672  29.685   7.901  0.3625  0.1418 -0.1263
    1WF      WF67890   0.942   4.714   7.172  0.0611  0.4804  0.2817
    1WF      WF67891  18.222  26.207   9.064 -0.2933 -0.0662 -0.1248
    1WF      WF67892  10.423   2.076   7.269  0.0435  0.0563 -0.1698
    1WF      WF67893   9.669  21.250   1.158  0.3602 -0.1517 -0.0902
    1WF      WF67894  12.947   3.277   7.557  0.2567 -0.0352 -0.1184
    1WF      WF67895  21.504   0.862   8.804 -0.0397  0.1384  0.1047
    1WF      WF67896   3.714  28.430   2.796  0.2945  0.1426 -0.0915
    1WF      WF67897  28.717  12.739   8.489  0.0816 -0.2806 -0.0249
    1WF      WF67898  10.504   3.068   2.993 -0.0763 -0.1210 -0.4447
    1WF      WF67899  21.450  23.542   1.168 -0.0939  0.0282 -0.1958
    1WF      WF67900   6.759   3.784   8.219 -0.2281 -0.1923 -0.1946
    1WF      WF67901  11.974  17.253   0.870 -0.1600  0.1380 -0.4227
    1WF      WF67902  18.260  22.850   9.245  0.1290  0.0405  0.1344
    1WF      WF67903   9.520  24.198   7.407  0.2404 -0.3830  0.3084
    1WF      WF67904  29.535   9.457   7.581  0.1603  0.2560  0.1082
    1WF      WF67905  20.231   9.375   8.516 -0.0960 -0.2642  0.3276
    1WF      WF67906   0.541  17.192   7.487 -0.0832  0.1384  0.0570
    1WF      WF67907  16.326  26.646   7.836 -0.1090  0.0920  0.3973
    1WF      WF67908  13.027   1.681   2.515  0.0884 -0.0019 -0.0108
    1WF      WF67909   2.737   7.648   0.675 -0.2390  0.1336  0.2291
    1WF      WF67910  17.107  12.298   8.356 -0.2475  0.0002  0.0753
    1WF      WF67911  25.966  10.115   7.731 -0.1741 -0.1978 -0.0863
    1WF      WF67912  22.671   4.581   3.071  0.2324  0.0691  0.1917
    1WF      WF67913   1.848  16.326   9.246 -0.1492 -0.1382  0.1296
    1WF      WF67914   9.374   3.396   3.029 -0.0198  0.0850 -0.1298
    1WF      WF67915   2.248   9.225   7.492  0.1925  0.1155 -0.0216
    1WF      WF67916   8.865  26.165   8.131 -0.0923  0.1283  0.2181
    1WF      WF67917  14.614   6.433   2.199 -0.0909 -0.1132 -0.0832
    1WF      WF67918   6.327   6.431   1.440  0.0407 -0.1959 -0.3758
    1WF      WF67919  26.477  23.396   7.566 -0.0000 -0.1647 -0.1424
    1WF      WF67920  18.690  17.774   1.878  0.2759  0.3034 -0.0800
    1WF      WF67921  20.655   3.679   8.494 -0.0628  0.3079 -0.0281
    1WF      WF67922  18.401  26.178   8.628  0.2443 -0.0755  0.1514
    1WF      WF67923  20.274  23.747   9.018  0.5563  0.1758  0.0904
    1WF      WF67924  22.086   5.345   9.353 -0.0479 -0.1918 -0.0933
    1WF      WF67925  29.372  19.056   8.088  0.1391 -0.1690  0.0050
    1WF      WF67926   1.506  26.750   9.156  0.1066  0.0221 -0.1933
    1WF      WF67927  26.363  15.253   8.816  0.3779  0.0249 -0.0212
    1WF      WF67928   3.684  12.171   8.697 -0.0740  0.1521  0.2077
    1WF      WF67929  11.859   2.215   0.034 -0.1934  0.0295 -0.4013
    1WF      WF67930   4.893  24.862   8.695 -0.0141 -0.0992 -0.0513
    1WF      WF67931  26.984  16.535   6.080 -0.0784  0.1304 -0.2203
    1WF      WF67932  29.377   4.244   1.339 -0.3643  0.0138 -0.0291
    1WF      WF67933   6.636   1.258   2.471  0.1001 -0.0698  0.1201
    1WF      WF67934  18.882  24.016   0.019  0.0901 -0.2811 -0.2564
    1WF      WF67935  28.247   8.633   0.830 -0.0586 -0.3380 -0.1215
    1WF      WF67936  27.587  19.628   6.296 -0.1219  0.0249 -0.1847
    1WF      WF67937  16.401   4.346   0.945  0.2362  0.3589  0.0685
    1WF      WF67938  19.696  29.291   2.119  0.1246 -0.1494  0.0118
    1WF      WF67939  20.574  18.899   1.030  0.0978  0.0001 -0.0572
    1WF      WF67940  26.446   9.305   0.386  0.1318 -0.0442 -0.0177
    1WF      WF67941   2.334   6.603   8.152 -0.1482 -0.0003  0.1424
    1WF      WF67942   7.717  18.225   8.006 -0.0302  0.1000  0.1232
    1WF      WF67943  17.482   6.534   1.353  0.2002  0.0195 -0.1302
    1WF      WF67944  13.384   7.256   1.332 -0.3056 -0.1187 -0.1966
    1WF      WF67945  29.862  12.185   0.067  0.0194 -0.0330 -0.0419
    1WF      WF67946  20.721  24.312   1.078  0.0610  0.1536  0.0629
    1WF      WF67947   2.649  24.842   0.783 -0.2586 -0.0981 -0.2977
    1WF      WF67948  26.739   2.454   8.381  0.3792  0.2482  0.0154
    1WF      WF67949  23.866  25.140   9.083 -0.0221  0.0198 -0.1847
    1WF      WF67950  27.340   9.561   7.921 -0.2913 -0.1341  0.0208
    1WF      WF67951  21.888  14.176   8.853 -0.2017 -0.1442  0.2137
    1WF      WF67952  13.612  14.093   7.971 -0.1212 -0.1608 -0.1312
    1WF      WF67953   9.956  19.825   0.069  0.4053  0.0056 -0.2554
    1WF      WF67954  11.085  13.959   0.017 -0.2301 -0.3058 -0.1628
    1WF      WF67955  18.216  18.593   7.441  0.1393  0.2298 -0.2501
    1WF      WF67956  15.781   8.513   0.998  0.1824  0.1251  0.0068
    1WF      WF67957   4.828  19.911   6.648  0.3467 -0.3270  0.0304
    1WF      WF67958  15.750   5.404   1.865 -0.4184  0.2794 -0.1287
    1WF      WF67959   7.530  28.809   1.216 -0.0483 -0.0031  0.2667
    1WF      WF67960  15.184  25.813   2.208  0.1222  0.0960 -0.0985
    1WF      WF67961   2.319   4.495   8.488  0.0433 -0.1387 -0.0357
    1WF      WF67962  24.803  12.360   1.291 -0.2123  0.1064 -0.0629
    1WF      WF67963  17.189  21.316   8.442 -0.0709 -0.1387  0.1446
    1WF      WF67964  28.820  22.085   8.017 -0.0878  0.0055 -0.1486
    1WF      WF67965  27.827   5.920   1.295  0.0063 -0.1261 -0.2112
    1WF      WF67966  11.763   3.724   2.654 -0.2095  0.3206  0.1932
    1WF      WF67967   9.136  12.000   1.795  0.2834  0.2754 -0.1890
    1WF      WF67968  12.112  18.581   1.229 -0.2426 -0.0710 -0.3002
    1WF      WF67969  16.143  29.738   2.331 -0.0960  0.1940 -0.0881
    1WF      WF67970   8.999  11.320   0.847  0.2654  0.0493  0.0081
    1WF      WF67971  11.338  22.797   9.006  0.1786 -0.0604  0.3839
    1WF      WF67972   3.357  13.275   9.073  0.1783 -0.1946  0.0135
    1WF      WF67973  27.575  29.753   8.061  0.3108 -0.0138 -0.2748
    1WF      WF67974  17.897  14.427   7.230  0.4206 -0.2970  0.1920
    1WF      WF67975  21.889  14.857   0.530 -0.1253 -0.0422 -0.5308
    1WF      WF67976  28.118  10.925   0.308 -0.3333 -0.0393  0.0688
    1WF      WF67977  14.283   4.520   2.277  0.0510  0.0096 -0.0208
    1WF      WF67978   2.751   0.155   0.717 -0.2663  0.0675  0.1749
    1WF      WF67979  23.123   0.331   7.607 -0.0854 -0.0701  0.3169
    1WF      WF67980  16.951  22.891   8.385  0.1270 -0.1772 -0.0443
    1WF      WF67981  29.707  23.919   7.861  0.3217 -0.0121  0.0315
    1WF      WF67982   7.678  28.015   9.344  0.0770  0.0353  0.4418
    1WF      WF67983  25.490   6.886   0.041  0.1297  0.2365 -0.2712
    1WF      WF67984   9.078  17.490   2.139  0.0382  0.0651  0.0936
    1WF      WF67985   1.817  29.786   1.633  0.0752 -0.3402  0.0297
    1WF      WF67986  20.398   4.765   1.503  0.3616 -0.1988 -0.0345
    1WF      WF67987  22.773  24.238   8.900 -0.1733 -0.1428  0.1578
    1WF      WF67988  10.321   7.717   2.679  0.5599 -0.1075  0.0098
    1WF      WF67989  21.815  23.674   0.011  0.1512  0.3687  0.1970
    1WF      WF67990  13.456   7.192   1.926  0.2181  0.4897  0.0461
    1WF      WF67991  22.182  14.337   9.283 -0.4411 -0.0671  0.1347
    1WF      WF67992   0.230  10.017   8.962 -0.2441 -0.1926  0.1721
    1WF      WF67993  13.825   8.682   0.477 -0.0653  0.2384  0.1997
    1WF      WF67994   9.166  24.348   7.056  0.1181  0.2657  0.2386
    1WF      WF67995  15.322   5.419   0.552 -0.2497 -0.1135 -0.0340
    1WF      WF67996  10.652   7.362   1.293 -0.2043  0.2442  0.3062
    1WF      WF67997  29.373   2.866   0.771 -0.0166 -0.0647  0.0115
    1WF      WF67998  14.817  14.882   8.242 -0.4452  0.1576  0.2535
    1WF      WF67999  16.920  18.586   9.309  0.0657 -0.2187 -0.0661
    1WF      WF68000  17.827   8.489   1.316  0.3284 -0.0968 -0.0457
    1WF      WF68001  22.184  17.880   9.316 -0.0793 -0.3232  0.1241
    1WF      WF68002  28.130   5.235   9.335 -0.2283  0.4157 -0.1415
    1WF      WF68003   9.921  29.233   2.321  0.1689 -0.0551 -0.0742
    1WF      WF68004   8.351  23.149   2.377  0.0416  0.0064  0.0603
    1WF      WF68005   2.999  10.075   1.676 -0.1768 -0.1906 -0.1398
    1WF      WF68006  23.094  22.079   8.227 -0.5248 -0.0799 -0.0406
    1WF      WF68007  11.344   4.293   7.871 -0.0276  0.0776  0.0018
    1WF      WF68008  28.996  28.257   1.539 -0.0887  0.0008 -0.0700
    1WF      WF68009  16.264   7.794   7.271 -0.0922  0.3314  0.4075
    1WF      WF68010  26.069  16.848   7.559  0.3825 -0.0125 -0.0948
    1WF      WF68011  14.559  27.755   2.584 -0.0858  0.2453  0.0012
    1WF      WF68012   5.244  15.272   8.910  0.0226  0.1218  0.2189
    1WF      WF68013   1.245  29.523   9.297 -0.2736  0.1443 -0.0880
    1WF      WF68014  17.172  10.839   1.465 -0.0134 -0.0039 -0.1868
    1WF      WF68015   4.219   6.890   2.308 -0.1269  0.0646 -0.2700
    1WF      WF68016  28.400  25.457   0.967 -0.1779 -0.1401  0.3058
    1WF      WF68017  14.178  26.635   0.748  0.0874  0.1343  0.2064
    1WF      WF68018  15.934  15.858   0.348  0.1269 -0.0889  0.1177
    1WF      WF68019  13.394   4.113   7.051  0.1096  0.1599 -0.0930
    1WF      WF68020   9.098  25.331   1.150  0.1875  0.1692  0.2013
    1WF      WF68021  19.686  12.357   7.942  0.2060 -0.0469  0.2801
    1WF      WF68022  14.245  12.189   2.601  0.0276 -0.0614  0.2118
    1WF      WF68023  19.276  13.580   9.062 -0.3228  0.1690  0.0439
    1WF      WF68024   8.401   6.478   1.964  0.0732 -0.1652 -0.0451
    1WF      WF68025  18.455  28.616   3.457 -0.2274  0.2339  0.0958
    1WF      WF68026  23.096  23.206   1.148 -0.0598 -0.3127 -0.1310
    1WF      WF68027  12.788  21.547   9.016 -0.0654 -0.0931 -0.1529
    1WF      WF68028  22.418  19.364   8.341 -0.1666  0.3082 -0.0200
    1WF      WF68029  29.978  15.025   6.917 -0.1901  0.0132 -0.2362
    1WF      WF68030  26.455  16.649   7.196  0.3171  0.2499  0.0845
    1WF      WF68031  27.145  20.311   0.513 -0.3472  0.3539 -0.0216
    1WF      WF68032  21.790  13.006   7.708  0.1255  0.1430 -0.3466
    1WF      WF68033   1.968   8.981   7.132 -0.2190 -0.1026  0.1789
    1WF      WF68034   4.089  11.725   8.684  0.0959 -0.0334  0.0841
    1WF      WF68035  16.683  14.325   8.642 -0.1170  0.1974 -0.2621
    1WF      WF68036  28.995  13.204   8.519  0.3188 -0.2236  0.0834
    1WF      WF68037   3.824  12.159   6.456 -0.0618 -0.1421 -0.1369
    1WF      WF68038  29.022  17.027   0.922  0.0812  0.0510  0.0027
    1WF      WF68039  14.389   5.024   9.089 -0.0647 -0.0888 -0.3035
    1WF      WF68040  28.746  15.019   6.901  0.0540  0.4033 -0.0306
    1WF      WF68041  13.056  20.050   7.425 -0.1386  0.0297  0.3520
    1WF      WF68042   0.698  10.021   3.034  0.1005  0.0955  0.1917
    1WF      WF68043  21.634  10.688   7.295  0.2293 -0.1004  0.2294
    1WF      WF68044   3.898  21.336   6.863 -0.0200  0.1735  0.1577
    1WF      WF68045  17.994   9.229   0.715 -0.3239 -0.0372 -0.2324
    1WF      WF68046  29.182  22.387   8.666  0.2452 -0.2706 -0.0019
    1WF      WF68047  26.802  24.307   1.506  0.0333  0.1206 -0.0561
    1WF      WF68048   5.921  30.148   8.750  0.0748 -0.3768 -0.1079
    1WF      WF68049  18.156  10.922   8.495 -0.1517  0.4036 -0.0871
    1WF      WF68050  21.175  20.352   8.261  0.0937 -0.3588 -0.0916
    1WF      WF68051  10.248   5.456   1.578  0.2849 -0.1681 -0.0649
    1WF      WF68052  17.435   8.847   1.324  0.1272 -0.0765 -0.0781
    1WF      WF68053   7.942   9.392   0.195  0.0552  0.2459 -0.0028
    1WF      WF68054  29.714  12.252   7.043 -0.1905  0.3373  0.3164
    1WF      WF68055   2.902  25.871   7.201  0.0682 -0.0253  0.1365
    1WF      WF68056  30.053  13.137   7.805  0.2567  0.1285  0.0234
    1WF      WF68057  16.560  11.148   0.194 -0.0391 -0.0581  0.0210
    1WF      WF68058  26.095  26.035   9.031 -0.1703  0.0230 -0.0133
    1WF      WF68059  14.589  27.753   7.957 -0.0051 -0.0739 -0.3529
    1WF      WF68060   9.313  18.902   8.730  0.0193  0.1264 -0.2443
    1WF      WF68061  12.993  11.174   8.492  0.1732 -0.1723  0.3138
    1WF      WF68062   6.433  10.853   8.574 -0.1534 -0.0816 -0.1476
    1WF      WF68063  28.446  27.297   7.013 -0.0675 -0.1144  0.2198
    1WF      WF68064   8.983  12.969   8.542 -0.0151 -0.0972  0.2164
    1WF      WF68065  15.242  10.098   0.238  0.3377  0.0275 -0.0499
    1WF      WF68066  22.065   3.314   7.963  0.2841  0.1648 -0.2267
    1WF      WF68067   6.703  15.790   8.798 -0.2909 -0.1365  0.1700
    1WF      WF68068  23.240  29.503   0.833  0.1702  0.1015  0.0789
    1WF      WF68069  27.967  13.009   6.414  0.0864 -0.2364 -0.0495
    1WF      WF68070  10.327   6.789   1.893  0.0405  0.3650 -0.0298
    1WF      WF68071  11.286   1.794   0.798 -0.2397  0.1376  0.3790
    1WF      WF68072   9.972   7.937   2.435 -0.0621  0.0389  0.0772
    1WF      WF68073  27.246   2.945   8.664 -0.3331  0.0172  0.0993
    1WF      WF68074  10.478  30.019   9.206  0.0628  0.0378  0.2384
    1WF      WF68075  29.085  18.060   0.258 -0.0102 -0.2087  0.0092
    1WF      WF68076  10.232   5.878   8.754  0.3644 -0.0814  0.0079
    1WF      WF68077  18.156   7.134   8.414  0.2624  0.2271 -0.1252
    1WF      WF68078  30.047  10.844   7.926 -0.0450 -0.2860  0.0210
    1WF      WF68079  19.803  23.777   8.699 -0.0763 -0.0411 -0.1173
    1WF      WF68080  21.727  23.758   2.019 -0.2546 -0.0131  0.1425
    1WF      WF68081   0.226  16.323   8.377 -0.0504  0.1672  0.1411
    1WF      WF68082  20.333  18.097   1.555  0.1341 -0.1852 -0.0515
    1WF      WF68083  26.875  28.997   1.833 -0.1310  0.0647  0.0677
    1WF      WF68084  10.287   6.238   2.109  0.1321 -0.0777 -0.0934
    1WF      WF68085   5.728   2.880   0.074  0.0210 -0.0031  0.1993
    1WF      WF68086   4.147   3.675   3.099 -0.2385  0.0265 -0.0223
    1WF      WF68087  24.253  15.586   8.209 -0.3732  0.0534 -0.0540
    1WF      WF68088  14.424   6.893   0.432  0.1470  0.1788 -0.0610
    1WF      WF68089  26.645  18.460   6.959  0.2065 -0.1457 -0.3806
    1WF      WF68090  11.217  29.525   9.057  0.0138  0.1026 -0.3407
    1WF      WF68091  14.926  27.356   8.202 -0.0763 -0.2441  0.0441
    1WF      WF68092  29.912  20.958   7.429  0.0710  0.1256  0.1613
    1WF      WF68093  17.883   5.642   2.809 -0.1644 -0.2884 -0.0981
    1WF      WF68094  23.047   9.222   9.127 -0.0503  0.0870 -0.0022
    1WF      WF68095   1.933  19.212   6.285 -0.2322 -0.2333 -0.0044
    1WF      WF68096  14.183   7.800   9.307 -0.0916 -0.0550 -0.0318
    1WF      WF68097   8.989   7.985   3.253  0.1120  0.1256 -0.0848
    1WF      WF68098   8.509  11.681   2.294  0.0069 -0.0227 -0.0078
    1WF      WF68099  10.695   2.411   8.161 -0.3323  0.4827  0.2370
    1WF      WF68100   0.482  30.082   8.551  0.1812 -0.1092 -0.0247
    1WF      WF68101  13.450   0.537   0.337  0.2125  0.1347 -0.0486
    1WF      WF68102  15.874   5.290   2.316 -0.3243  0.1299  0.1531
    1WF      WF68103   7.024  28.691   9.263 -0.2187 -0.1890  0.0946
    1WF      WF68104   6.328   1.833   3.496  0.1513  0.3906  0.2531
    1WF      WF68105  18.652  18.190   8.561 -0.0704  0.3313  0.0003
    1WF      WF68106   9.465   0.093   8.319 -0.1946 -0.0220  0.0117
    1WF      WF68107   8.882   0.041   1.348  0.1688  0.0485  0.0543
    1WF      WF68108   3.525   1.480   9.148  0.2470 -0.1650 -0.1747
    1WF      WF68109  27.542   3.355   0.139 -0.1563 -0.2172  0.2546
    1WF      WF68110   0.639   3.991   8.387  0.1045  0.1274  0.1457
    1WF      WF68111  28.346  26.869   0.395 -0.2092  0.0237 -0.1579
    1WF      WF68112  28.340   5.872   8.788  0.0483  0.3164 -0.3273
    1WF      WF68113  24.748  17.233   6.238  0.3927 -0.0069  0.0553
    1WF      WF68114   0.296  14.672   6.922 -0.0507 -0.4276  0.1341
    1WF      WF68115   6.510  25.724   2.158  0.0911  0.1117 -0.4507
    1WF      WF68116  28.208  14.011   6.877 -0.1280 -0.0570 -0.0735
    1WF      WF68117   0.231  28.277   2.482 -0.1316 -0.0681  0.3250
    1WF      WF68118  12.840  27.066   9.219 -0.2585  0.0383  0.1054
    1WF      WF68119  29.806   4.441   1.583  0.1474  0.0983  0.1154
    1WF      WF68120  12.066   2.913   8.360 -0.1804  0.0677  0.1901
    1WF      WF68121  11.410   4.116   8.718 -0.1315  0.0598  0.1019
    1WF      WF68122  26.915  23.075   7.647 -0.0932  0.1450  0.2163
    1WF      WF68123   0.524  13.042   0.658  0.0980 -0.1888  0.3341
    1WF      WF68124  16.251   2.488   1.616 -0.0421  0.1616  0.1271
    1WF      WF68125  22.197  16.826   0.709  0.0980  0.1170  0.2890
    1WF      WF68126  26.493  17.536   2.150  0.2355 -0.1007  0.1147
    1WF      WF68127  20.972   1.450   6.421 -0.0258  0.1034  0.0543
    1WF      WF68128  13.608  23.136   8.402  0.0997  0.0549 -0.0414
    1WF      WF68129   3.943   9.771   6.430 -0.0576  0.0197 -0.0542
    1WF      WF68130   2.630  25.542   0.197 -0.0376 -0.1054  0.0551
    1WF      WF68131  22.131  14.802   0.063 -0.1721 -0.2881 -0.1466
    1WF      WF68132  21.430   4.291   9.268 -0.0322 -0.0268 -0.1243
    1WF      WF68133   2.228   0.858   8.155 -0.1037 -0.1220 -0.2991
    1WF      WF68134  21.928  16.473   7.640  0.3190  0.0279  0.0195
    1WF      WF68135  27.235   0.925   7.774 -0.2931  0.3857  0.2885
    1WF      WF68136  16.912  23.968   0.680 -0.1482  0.1256  0.2921
    1WF      WF68137  28.848  18.280   0.875 -0.0770  0.2304 -0.1126
    1WF      WF68138   2.313  28.700   7.966  0.2553  0.0690  0.1646
    1WF      WF68139   7.291  24.436   7.176  0.0432 -0.0284 -0.1917
    1WF      WF68140  15.337   2.981   8.241 -0.0476 -0.0346 -0.0576
    1WF      WF68141   5.132   5.368   8.293 -0.2455  0.0006  0.1209
    1WF      WF68142  21.952  22.233   8.648  0.2340 -0.0896 -0.0706
    1WF      WF68143  21.937  14.667   9.031 -0.0859  0.1119 -0.0285
    1WF      WF68144  19.484  14.826   9.211 -0.0595  0.0444 -0.3977
    1WF      WF68145  23.268  16.490   6.471 -0.1993  0.0004  0.0904
    1WF      WF68146  27.081  28.310   0.936  0.3123 -0.0963  0.0439
    1WF      WF68147  10.725   7.778   8.772  0.1214  0.3602  0.4291
    1WF      WF68148  26.909   2.619   8.831 -0.1573 -0.1856 -0.0127
    1WF      WF68149   2.855  26.400   8.143  0.0306  0.2379 -0.3177
    1WF      WF68150  21.091   6.121   1.743 -0.0115  0.1482  0.0827
    1WF      WF68151  21.897   0.880   9.155  0.0267  0.0205 -0.2766
    1WF      WF68152   0.551  21.620   5.776 -0.1379  0.1672  0.1588
    1WF      WF68153  24.415  12.611   1.484 -0.1764 -0.1877  0.1240
    1WF      WF68154  26.521  21.604   0.702 -0.2504  0.1728 -0.1579
    1WF      WF68155   6.370  19.343   1.598 -0.1200  0.0746  0.3138
    1WF      WF68156  23.112  16.134   6.892 -0.1107 -0.1817  0.0606
    1WF      WF68157  10.418  13.042   7.505 -0.0751  0.4009 -0.1096
    1WF      WF68158  17.416  18.158   7.023  0.0675  0.0015 -0.0892
    1WF      WF68159  12.156   5.684   1.519  0.1340  0.0486 -0.0868
    1WF      WF68160   9.912   4.714   6.449 -0.0125  0.0921  0.0527
    1WF      WF68161  23.826  17.635   8.695 -0.1094  0.1111  0.1531
    1WF      WF68162  26.714  16.499   2.306  0.5163  0.1576  0.0562
    1WF      WF68163  26.580  18.915   2.057 -0.0971  0.1880 -0.2539
    1WF      WF68164  10.626  25.753   0.672 -0.0510  0.0784 -0.2405
    1WF      WF68165  29.765   9.156   6.201  0.1907 -0.0283 -0.0776
    1WF      WF68166  24.128  27.264   0.369  0.1798  0.0648  0.1440
    1WF      WF68167  25.422   3.661   7.540 -0.2021 -0.3342  0.3028
    1WF      WF68168   9.828  17.729   0.134  0.1764  0.1893 -0.1393
    1WF      WF68169  15.173   3.618   2.476  0.4106 -0.1498 -0.2857
    1WF      WF68170   3.488  13.028   0.167  0.1964  0.0123  0.0757
    1WF      WF68171   6.501   5.360   1.449  0.2071  0.3492 -0.2717
    1WF      WF68172  16.672   7.015   1.567  0.0449  0.1878  0.2747
    1WF      WF68173   8.644  26.519   8.319 -0.3238  0.3734  0.1680
    1WF      WF68174  12.497  18.935   0.999 -0.2441 -0.2353 -0.3072
    1WF      WF68175   0.993   6.247   8.967  0.2530 -0.0342  0.0887
    1WF      WF68176  29.890  11.702   0.160 -0.0716  0.1345  0.2161
    1WF      WF68177   2.270  29.612   1.747 -0.1705 -0.0068 -0.1614
    1WF      WF68178  12.068  23.667   8.316 -0.2364 -0.2273  0.0603
    1WF      WF68179  16.865  16.261   9.336  0.0096  0.2088 -0.0761
    1WF      WF68180  10.403   8.353   0.035 -0.1078  0.1481 -0.2800
    1WF      WF68181  18.700  19.611   6.450  0.0985 -0.0054 -0.1317
    1WF      WF68182  15.629   5.003   0.763  0.0624 -0.1999  0.1850
    1WF      WF68183  25.561  13.080   8.737 -0.2816 -0.0609  0.1974
    1WF      WF68184  17.748   3.077   8.433  0.2123 -0.1111  0.0886
    1WF      WF68185  23.250   1.236   8.405 -0.0747  0.1453 -0.3281
    1WF      WF68186   9.156   7.918   9.294  0.1345  0.2281 -0.0395
    1WF      WF68187  28.183  12.595   1.608  0.0543 -0.3577 -0.0981
    1WF      WF68188  21.954  13.145   8.386 -0.0649 -0.3203  0.0536
    1WF      WF68189  28.174  27.224   8.421  0.1306  0.1305 -0.2173
    1WF      WF68190  10.984   5.547   0.647 -0.0001 -0.1456  0.1315
    1WF      WF68191  10.604  22.754   8.040  0.0079 -0.1917  0.0343
    1WF      WF68192  22.037  22.441   2.741  0.0565 -0.0543 -0.0682
    1WF      WF68193   8.820  17.695   0.534 -0.0801  0.0433 -0.0897
    1WF      WF68194   1.204  27.311   8.964  0.0049 -0.0964  0.3683
    1WF      WF68195   5.879   9.214   0.977 -0.0029 -0.3253  0.3422
    1WF      WF68196  15.838  22.369   2.667 -0.0663 -0.0450  0.0158
    1WF      WF68197  28.011  11.102   9.153 -0.1333 -0.1174 -0.2766
    1WF      WF68198   4.022  27.228   0.143  0.2554 -0.2571  0.0379
    1WF      WF68199   1.923  22.644   0.772  0.1744 -0.4632  0.1023
    1WF      WF68200  25.790  19.767   2.331  0.0514  0.4446 -0.1270
    1WF      WF68201  19.125  26.749   0.270  0.2317 -0.1174  0.1971
    1WF      WF68202  11.817  27.439   6.165  0.2144 -0.0627  0.1239
    1WF      WF68203   3.024  12.992   9.359 -0.2619  0.2080  0.0162
    1WF      WF68204  23.617  15.306   8.597  0.2088 -0.1029 -0.2349
    1WF      WF68205  20.634  15.158   8.171  0.0250  0.1241 -0.2150
    1WF      WF68206   6.798  10.596   8.761 -0.2682 -0.2717  0.0673
    1WF      WF68207  21.682  23.221   0.212 -0.0315 -0.0349 -0.1654
    1WF      WF68208  13.058   3.173   1.143  0.1833  0.3493  0.1262
    1WF      WF68209  17.645   9.558   0.549 -0.1900  0.1147  0.0894
    1WF      WF68210  12.069  22.233   8.918 -0.0503  0.1238  0.0130
    1WF      WF68211  20.264  28.496   7.354 -0.0230  0.0901 -0.0118
    1WF      WF68212  27.743   1.746   9.119  0.0025 -0.2156  0.0445
    1WF      WF68213  17.266   5.919   0.329  0.1456  0.0510  0.1989
    1WF      WF68214   6.091  27.645   1.898  0.2541 -0.3900  0.2748
    1WF      WF68215  19.849  28.062   8.571 -0.0510 -0.0809 -0.0292
    1WF      WF68216  18.786  11.961   8.564  0.0134 -0.1041  0.0653
    1WF      WF68217   8.216  29.642   0.168 -0.2021 -0.3426 -0.3444
    1WF      WF68218   9.618  27.507   8.423  0.1203 -0.1559  0.1043
    1WF      WF68219  21.089  25.964   9.261  0.2938 -0.2270  0.0152
    1WF      WF68220  17.983  21.348   0.952  0.1621 -0.0485  0.0367
    1WF      WF68221   9.295  15.885   8.753  0.4910  0.1413 -0.1899
    1WF      WF68222  15.629   8.009   1.030 -0.1860  0.2639 -0.3172
    1WF      WF68223  13.782  14.849   8.614  0.1510 -0.0990 -0.1960
    1WF      WF68224  18.358   0.882   1.287  0.1394  0.0847 -0.2260
    1WF      WF68225   8.341  20.076   0.973  0.1738 -0.0286 -0.2658
    1WF      WF68226  29.135  29.916   7.182  0.1309 -0.1115  0.1251
    1WF      WF68227  25.789  10.749   6.097 -0.1097  0.3209  0.2462
    1WF      WF68228  15.997  22.905   8.784 -0.0783 -0.1401  0.0254
    1WF      WF68229  28.496  28.050   9.391 -0.3127  0.2127 -0.0556
    1WF      WF68230  23.685  28.090   0.998  0.0398 -0.2411  0.2743
    1WF      WF68231  14.728  14.001   1.344 -0.1220 -0.0374  0.1499
    1WF      WF68232  26.317  26.880   0.038 -0.3273  0.0526 -0.2600
    1WF      WF68233   0.380   7.788   2.249 -0.5387  0.1241  0.2097
    1WF      WF68234  28.336  23.775   0.026 -0.1681  0.0111  0.4869
    1WF      WF68235  23.046  30.094   6.334 -0.0625  0.0654  0.1105
    1WF      WF68236  24.767  22.687   1.835  0.4418  0.0390 -0.3975
    1WF      WF68237   1.680  19.040   9.377 -0.0170  0.1672 -0.1402
    1WF      WF68238  13.725  15.720   9.390 -0.1411 -0.0641  0.3245
    1WF      WF68239   6.192   6.832   1.658  0.2595  0.1708 -0.1553
    1WF      WF68240  10.633  15.091   0.621  0.2026 -0.1149  0.0928
    1WF      WF68241   4.637  17.727   7.364  0.1895 -0.0572 -0.1541
    1WF      WF68242   5.353   4.086   9.207  0.2834  0.2191  0.1602
    1WF      WF68243   4.113  13.639   7.374 -0.0578  0.0831  0.0339
    1WF      WF68244  21.106  18.133   2.429  0.2944  0.4126 -0.2069
    1WF      WF68245   1.624   9.780   9.367  0.4263  0.2282 -0.1056
    1WF      WF68246  11.455  10.390   0.521  0.2145  0.2227  0.1726
    1WF      WF68247   7.462  12.913   8.071  0.1648 -0.4088 -0.2028
    1WF      WF68248   3.393  23.896   1.270  0.1217 -0.0483  0.2954
    1WF      WF68249  19.024  26.972   0.742 -0.1081  0.3682 -0.0981
    1WF      WF68250  23.513   8.366   0.969  0.1122 -0.0820 -0.0810
    1WF      WF68251  23.115  11.615   7.009  0.3013  0.1725  0.0507
    1WF      WF68252   3.281  19.436   8.277 -0.0234 -0.4358  0.2094
    1WF      WF68253   1.070  20.550   7.560  0.0122 -0.0453 -0.0381
    1WF      WF68254   0.881  14.091   6.897 -0.1442  0.2992 -0.0921
    1WF      WF68255  19.352   6.471   3.467 -0.2594 -0.2986  0.0775
    1WF      WF68256   0.019  16.732   8.663 -0.1955 -0.1239  0.1507
    1WF      WF68257  29.504  24.033   7.221 -0.0184  0.2853 -0.3114
    1WF      WF68258  12.478  14.290   0.697 -0.1183  0.2359  0.1237
    1WF      WF68259  13.839   3.531   4.018  0.0448 -0.1958  0.2277
    1WF      WF68260  18.046  26.642   8.640 -0.0591  0.2308 -0.0086
    1WF      WF68261  24.703  19.939   7.881 -0.1661  0.2028  0.0255
    1WF      WF68262  19.089   7.880   1.606 -0.0560 -0.0378 -0.0616
    1WF      WF68263  25.214  11.448   9.088  0.0336 -0.1438 -0.2170
    1WF      WF68264  20.113   9.448   9.375 -0.0567 -0.1384 -0.0899
    1WF      WF68265   5.815  29.095   2.002  0.0354 -0.0182 -0.1984
    1WF      WF68266  12.795  20.135   0.977 -0.1412  0.3481 -0.0419
    1WF      WF68267  23.892   9.056   1.842 -0.1129  0.3713  0.0614
    1WF      WF68268   6.768  13.705   9.208  0.0933  0.1308  0.2964
    1WF      WF68269  12.691  17.635   8.314  0.1625  0.0423  0.0802
    1WF      WF68270   0.541  27.323   3.314  0.0139  0.0386 -0.0155
    1WF      WF68271  18.792  18.211   8.087  0.1091  0.2682  0.1857
    1WF      WF68272  10.300  18.176   7.903 -0.0589  0.1930 -0.1128
    1WF      WF68273  17.037  11.228   0.320  0.0676 -0.0509 -0.1353
    1WF      WF68274  18.827   9.375   7.633  0.2721  0.2159 -0.2655
    1WF      WF68275  15.582  17.753   2.416 -0.1643 -0.1428  0.2490
    1WF      WF68276  25.488   8.866   9.003 -0.3253  0.1773 -0.0569
    1WF      WF68277  14.742  10.145   1.257 -0.2894 -0.0083 -0.0031
    1WF      WF68278   8.986  25.805   9.299  0.0191  0.1243 -0.0189
    1WF      WF68279  17.364   4.862   1.377 -0.1566  0.0290 -0.2357
    1WF      WF68280  10.748  20.747   1.095  0.0672  0.1793 -0.0912
    1WF      WF68281  27.113  25.684   7.624  0.1276 -0.0877  0.1022
    1WF      WF68282  26.415  21.463   0.173 -0.0297 -0.0680  0.1544
    1WF      WF68283  21.116  26.525   6.279  0.4308  0.0369  0.2580
    1WF      WF68284   5.861   3.686   8.372 -0.0520  0.4062  0.0774
    1WF      WF68285  18.967  15.857   9.274  0.0906  0.1670  0.1454
    1WF      WF68286  21.940  22.793   0.078  0.0877 -0.1391 -0.0085
    1WF      WF68287  14.382  12.773   2.587  0.2586 -0.2106 -0.1145
    1WF      WF68288  13.490  28.538   8.919 -0.2525 -0.0453  0.1457
    1WF      WF68289   3.275   7.766   1.650 -0.1405 -0.1170 -0.1911
    1WF      WF68290  15.060  21.857   9.356  0.0165 -0.4043 -0.1439
    1WF      WF68291  23.506   1.837   0.529  0.0897 -0.1119  0.0429
    1WF      WF68292  23.695   8.309   0.515  0.3421 -0.0893 -0.2812
    1WF      WF68293  23.514  15.110   9.058  0.2425  0.1435 -0.3774
    1WF      WF68294  12.325  29.168   1.990  0.1094  0.0703 -0.0581
    1WF      WF68295   3.994  22.068   5.432  0.0463 -0.2717 -0.3039
    1WF      WF68296  27.326  13.559   8.289 -0.1477  0.1958 -0.3301
    1WF      WF68297  25.581  20.865   7.536  0.0068 -0.2783  0.2592
    1WF      WF68298  23.562  18.690   7.302  0.3801 -0.2619 -0.1694
    1WF      WF68299  17.274  16.524   0.130  0.1182  0.1769  0.1499
    1WF      WF68300   6.750  26.225   8.282  0.0224  0.0504  0.0497
    1WF      WF68301   1.681  21.135   8.007  0.0259 -0.1500  0.1330
    1WF      WF68302   3.072   3.751   1.855 -0.0694  0.4449 -0.2649
    1WF      WF68303  21.134   9.189   1.539 -0.0754 -0.2891  0.0599
    1WF      WF68304  22.209   7.845   1.277  0.0881 -0.2604  0.2557
    1WF      WF68305  19.944   9.923   9.324  0.1212  0.1380  0.0511
    1WF      WF68306  23.219   7.196   9.276  0.0480 -0.1370  0.1704
    1WF      WF68307  16.110   1.331   9.040  0.1360 -0.0171 -0.0351
    1WF      WF68308   2.424  17.365   1.450  0.1410 -0.0598  0.0936
    1WF      WF68309  24.863  22.333   7.708 -0.3298 -0.3548 -0.1489
    1WF      WF68310  14.588  18.763   8.165  0.3014  0.4621 -0.0288
    1WF      WF68311  14.554   3.734   2.539 -0.2169 -0.0395 -0.1264
    1WF      WF68312  16.903   5.376   3.730  0.2091  0.1522  0.2238
    1WF      WF68313  23.060   8.156   1.243  0.0517 -0.1674 -0.1248
    1WF      WF68314  19.429  11.064   1.856 -0.2030  0.0587 -0.0102
    1WF      WF68315   8.367  30.063   8.500 -0.0880  0.0276 -0.0041
    1WF      WF68316  21.180  26.967   3.283  0.1454  0.2949  0.1560
    1WF      WF68317  22.650  26.158   9.221  0.0325 -0.0655  0.1595
    1WF      WF68318  29.489   2.208   0.220  0.0538  0.0087 -0.2246
    1WF      WF68319   5.581   0.175   4.017 -0.0179  0.1192 -0.2720
    1WF      WF68320   7.355  12.926   8.559 -0.0524  0.1854  0.0061
    1WF      WF68321  23.966   5.551   1.263  0.0379  0.1428 -0.2282
    1WF      WF68322  15.593  25.414   1.218 -0.2264  0.1534  0.1684
    1WF      WF68323  17.394  12.590   8.051 -0.2759  0.0367  0.0626
    1WF      WF68324  25.091   8.642   8.750  0.1187 -0.3771 -0.0990
    1WF      WF68325  14.085   4.965   2.183 -0.1822  0.1173  0.2910
    1WF      WF68326  25.181   4.438   8.152  0.0939 -0.0657  0.0085
    1WF      WF68327  25.115  23.149   9.095  0.2304  0.0562  0.0622
    1WF      WF68328  20.784  29.640   8.203  0.2303 -0.2115 -0.1514
    1WF      WF68329  19.309  27.384   1.398 -0.4698 -0.0797  0.0077
    1WF      WF68330   0.256   5.197   0.556 -0.0739 -0.2227 -0.0057
    1WF      WF68331  27.912  11.330   2.496  0.0407  0.0850 -0.2491
    1WF      WF68332  22.228   5.236   0.390 -0.2083  0.0255 -0.0703
    1WF      WF68333   8.174   6.806   2.305  0.0899  0.1259 -0.0513
    1WF      WF68334  16.966  18.068   7.239  0.1836 -0.2717  0.0245
    1WF      WF68335  21.702  24.407   7.839 -0.0011  0.1901  0.1886
    1WF      WF68336  26.778  15.001   8.938  0.3007 -0.1962  0.3382
    1WF      WF68337   3.748  20.855   6.612  0.5257  0.2605  0.0952
    1WF      WF68338  27.375   6.471   2.029  0.3683 -0.0362 -0.2239
    1WF      WF68339  25.086  22.774   8.351 -0.3107 -0.1175 -0.0479
    1WF      WF68340  27.408   4.153   0.286 -0.2135 -0.1101 -0.2764
    1WF      WF68341   1.403  27.717   8.019  0.2059 -0.0124  0.1020
    1WF      WF68342  16.237  13.047   7.719 -0.1386 -0.0141 -0.0675
    1WF      WF68343  12.238  24.533   8.664 -0.3206  0.0385  0.1308
    1WF      WF68344  15.888  16.199   0.887 -0.0378  0.1591  0.2235
    1WF      WF68345  25.584  19.399   0.420 -0.0021  0.2283  0.1503
    1WF      WF68346   1.922   0.463   8.178 -0.2801  0.0644 -0.1119
    1WF      WF68347  24.015  11.090   7.717  0.0101  0.2022 -0.0312
    1WF      WF68348  16.144   9.347   1.813  0.2826  0.0669  0.0128
    1WF      WF68349  10.769  17.937   0.470 -0.0226 -0.1784 -0.2339
    1WF      WF68350  19.085  20.583   9.340 -0.0577  0.0161  0.3367
    1WF      WF68351  14.265   7.346   0.118  0.0045 -0.0798  0.1284
    1WF      WF68352  23.506   0.799   1.832 -0.1509 -0.2404 -0.0441
    1WF      WF68353   9.793  14.113   8.751 -0.2805 -0.2163 -0.2177
    1WF      WF68354  14.256  22.296   0.055 -0.2383  0.2062  0.0995
    1WF      WF68355   4.519  20.974   9.335  0.0465 -0.0274  0.2508
    1WF      WF68356  22.587  24.052   0.899 -0.1568  0.0294 -0.1084
    1WF      WF68357   3.033  19.411   8.728 -0.5695 -0.1170  0.1022
    1WF      WF68358  10.000  12.634   0.010  0.1319 -0.0065  0.3483
    1WF      WF68359   7.530  15.764   2.345 -0.0090  0.3788 -0.2961
    1WF      WF68360  23.078  14.930   1.928 -0.0369 -0.1005  0.0527
    1WF      WF68361   3.004   4.645   3.677  0.1329  0.3202 -0.2740
    1WF      WF68362   7.072  27.873   7.408 -0.0352  0.0549 -0.0960
    1WF      WF68363  24.753  21.000   0.520  0.1723 -0.1510  0.2432
    1WF      WF68364  15.799   8.406   1.938 -0.1208  0.1673 -0.3638
    1WF      WF68365  16.005   1.392   8.525  0.2486 -0.1599 -0.2511
    1WF      WF68366  26.661   9.525   1.057  0.2466 -0.1395 -0.1471
    1WF      WF68367  27.794  19.208   9.284  0.0740  0.0910  0.1368
    1WF      WF68368   2.123   5.028   1.164 -0.0036 -0.1989 -0.1104
    1WF      WF68369   7.763  27.793   7.665  0.0335  0.1388 -0.1446
    1WF      WF68370   2.425   7.410   7.380  0.2885 -0.1126  0.1031
    1WF      WF68371  26.495  16.377   6.024 -0.2637  0.1231 -0.2185
    1WF      WF68372  27.408  14.305   8.901  0.0875 -0.4489  0.3145
    1WF      WF68373  25.219  28.647   7.838  0.0276 -0.0961 -0.1785
    1WF      WF68374  26.503  15.448   6.632 -0.0639 -0.1113  0.1722
    1WF      WF68375   1.790  21.929   6.967 -0.1433 -0.3062 -0.2358
    1WF      WF68376   5.732  21.066   5.857  0.1640 -0.2404 -0.0203
    1WF      WF68377  29.233  20.136   0.716 -0.1856 -0.2847 -0.1635
    1WF      WF68378   5.284   2.964   9.227  0.0660  0.0928 -0.0519
    1WF      WF68379  14.548   4.673   1.210 -0.1050  0.2190 -0.2179
    1WF      WF68380  17.706  17.441   8.290  0.0461  0.1392  0.1314
    1WF      WF68381  19.556  10.122   0.212 -0.1009  0.0195 -0.2305
    1WF      WF68382  16.447  11.107   9.052 -0.2641 -0.0111 -0.0908
    1WF      WF68383  16.848  24.028   3.212 -0.1600  0.0474  0.1192
    1WF      WF68384   3.294  11.829   8.879  0.3560 -0.0386 -0.1889
    1WF      WF68385   4.182   6.116   1.513  0.4284 -0.2194  0.3804
    1WF      WF68386  27.262   1.552   9.267  0.0291 -0.0660  0.2129
    1WF      WF68387  21.057  21.305   6.881 -0.0699 -0.1564  0.0642
    1WF      WF68388  24.888   4.520   7.663 -0.2927  0.1932 -0.3319
    1WF      WF68389  13.463  11.117   8.695 -0.0449 -0.2746 -0.0922
    1WF      WF68390   7.286  23.018   9.074  0.2606 -0.0443 -0.1941
    1WF      WF68391   8.019  23.705   0.141 -0.1106 -0.1893  0.0415
    1WF      WF68392  25.685  18.812   1.142 -0.0801  0.1616 -0.0012
    1WF      WF68393  11.189  29.522   6.775  0.2014 -0.0366  0.0314
    1WF      WF68394  28.299   5.376   8.902 -0.0056  0.3955  0.1208
    1WF      WF68395   4.623   3.481   1.419 -0.2627  0.1321 -0.1714
    1WF      WF68396   1.994  22.582   7.841 -0.4694 -0.0768 -0.0978
    1WF      WF68397   8.152  19.464   6.125 -0.1268  0.2793  0.0903
    1WF      WF68398  26.565  17.569   9.240  0.2459 -0.4178  0.0918
    1WF      WF68399   0.587  13.785   2.411 -0.0580 -0.0765  0.1964
    1WF      WF68400  27.252   1.468   0.366 -0.1487 -0.0466  0.0375
    1WF      WF68401  18.930  11.810   0.719 -0.0466 -0.2173 -0.1996
    1WF      WF68402   8.391   7.306   0.979  0.0535 -0.1928  0.0922
    1WF      WF68403   6.591  19.447   0.489  0.2434  0.3404 -0.0785
    1WF      WF68404  23.369  10.640   8.712  0.0549 -0.3190 -0.3493
    1WF      WF68405   4.028  29.587   8.942 -0.0527 -0.0494  0.2668
    1WF      WF68406  22.227  11.074   2.156 -0.0099 -0.3399 -0.1169
    1WF      WF68407  14.409   9.940   0.943 -0.2528  0.2172 -0.2001
    1WF      WF68408  25.355   4.185   7.666  0.2021  0.0332 -0.1604
    1WF      WF68409  25.904  10.836   6.601  0.2858  0.0603  0.0880
    1WF      WF68410  10.104   5.722   6.708 -0.0277  0.0249  0.0887
    1WF      WF68411  10.627   6.045   8.496 -0.0869 -0.1894 -0.0006
    1WF      WF68412  11.584  29.355   8.247 -0.0117 -0.0035 -0.2488
    1WF      WF68413  20.168   4.937   3.380 -0.1446 -0.0947 -0.2358
    1WF      WF68414  22.230  21.943   6.071  0.0480  0.3036  0.3708
    1WF      WF68415   8.400  21.912   0.073  0.0243  0.4909 -0.0355
    1WF      WF68416  20.388  26.619   8.570  0.2239 -0.1717  0.0316
    1WF      WF68417  27.494  20.769   8.557  0.0017  0.1373 -0.0667
    1WF      WF68418  14.955  12.236   1.752  0.1803  0.0139 -0.1181
    1WF      WF68419  23.384   9.585   0.113 -0.1236  0.2782  0.2624
    1WF      WF68420   3.503   5.737   1.215 -0.3214 -0.1197  0.0720
    1WF      WF68421  29.506  28.668   6.695  0.1004 -0.0686 -0.0644
    1WF      WF68422  28.143  11.715   7.198  0.0629  0.2108  0.1300
    1WF      WF68423  28.732   6.290   7.863 -0.3621  0.1194  0.2105
    1WF      WF68424  23.712  27.658   9.177 -0.2369  0.1985  0.1297
    1WF      WF68425  24.592   2.125   8.518 -0.2244 -0.1623 -0.2035
    1WF      WF68426  16.619  12.632   2.174 -0.0227  0.2074 -0.4764
    1WF      WF68427  10.766   8.334   7.786  0.0303 -0.2715 -0.1954
    1WF      WF68428  21.027  25.544   8.908  0.0027 -0.3291  0.0334
    1WF      WF68429  20.941   7.871   1.451  0.2457  0.2864 -0.0196
    1WF      WF68430   5.755  11.596   9.030 -0.0639 -0.0777 -0.0717
    1WF      WF68431  28.830  24.833   0.302 -0.0949 -0.0698 -0.1740
    1WF      WF68432   8.125  28.989   8.047  0.1122 -0.0085  0.0081
    1WF      WF68433  23.755   6.543   3.498 -0.1207 -0.1035  0.3228
    1WF      WF68434  14.967   5.718   2.645  0.0927  0.0272 -0.1696
    1WF      WF68435  13.037   6.059   2.107 -0.0750  0.1320 -0.1862
    1WF      WF68436  18.143  17.750   0.414  0.0215 -0.0967 -0.2547
    1WF      WF68437   6.098   0.431   8.566  0.1831 -0.1111 -0.0414
    1WF      WF68438  19.978  10.379   1.368  0.0988 -0.1146 -0.0302
    1WF      WF68439  23.970  16.505   9.122 -0.1640 -0.3493 -0.0612
    1WF      WF68440  16.536  26.460   7.394  0.1198 -0.3469  0.3356
    1WF      WF68441   7.491  24.686   5.840 -0.2201  0.2767  0.3448
    1WF      WF68442  23.417  22.191   8.629 -0.0367 -0.2244 -0.0124
    1WF      WF68443   4.223  12.188   8.862  0.1762 -0.0672  0.1173
    1WF      WF68444   3.975  23.090   8.105  0.0303 -0.0326  0.0157
    1WF      WF68445   5.823  14.584   0.139 -0.2797  0.1187 -0.0618
    1WF      WF68446  17.229  22.795   0.285 -0.0423  0.1116  0.5904
    1WF      WF68447   7.205  15.347   2.314 -0.0267 -0.0533  0.0903
    1WF      WF68448  16.614   2.153   1.647  0.1193  0.0468  0.6883
    1WF      WF68449  24.848  13.811   8.772  0.1910 -0.1058 -0.1117
    1WF      WF68450   1.021  28.754   1.716  0.0354  0.3738  0.1983
    1WF      WF68451  20.458   0.650   0.153 -0.1306  0.2580 -0.2413
    1WF      WF68452  14.860   4.664   1.641  0.0275  0.1489 -0.0582
    1WF      WF68453  29.823  15.102   9.109  0.2803 -0.1945  0.0417
    1WF      WF68454  21.798   4.330   3.043  0.3092 -0.1410  0.1766
    1WF      WF68455  11.982  20.024   8.370  0.1389  0.0603 -0.1232
    1WF      WF68456  14.692  17.840   8.854  0.1762 -0.1090 -0.1291
    1WF      WF68457  22.909   8.440   2.159 -0.1940 -0.1291  0.1179
    1WF      WF68458  29.449   4.391   6.335 -0.3036 -0.0995  0.0897
    1WF      WF68459   7.407  29.447   8.485  0.2025 -0.2029  0.0249
    1WF      WF68460  17.726   3.430   7.629 -0.3537  0.0860 -0.2231
    1WF      WF68461   7.835  21.599   7.376  0.0343 -0.0688 -0.3604
    1WF      WF68462  17.459  19.485   1.595 -0.1940 -0.0422 -0.0798
    1WF      WF68463  23.165  18.138   9.135  0.1949 -0.2680 -0.2128
    1WF      WF68464   0.045   0.863   1.615 -0.3082 -0.0208 -0.1929
    1WF      WF68465  25.825  24.754   7.539  0.2149  0.1581 -0.0909
    1WF      WF68466  10.838  21.655   0.262 -0.0520  0.3757 -0.2291
    1WF      WF68467   1.248   1.097   9.090 -0.0111  0.1195  0.2301
    1WF      WF68468  10.335  22.003   1.865  0.0373  0.1459  0.1630
    1WF      WF68469   7.167  22.931   0.214  0.2966 -0.0522 -0.0981
    1WF      WF68470  22.056  12.817   8.790 -0.2302  0.0989 -0.1922
    1WF      WF68471   9.467  15.836   0.824  0.0642 -0.2196 -0.2223
    1WF      WF68472   9.416  23.909   0.461 -0.0017  0.0798  0.2605
    1WF      WF68473  24.750   7.284   8.264 -0.1020 -0.0144 -0.0484
    1WF      WF68474   1.650  11.553   9.098  0.3155  0.0891 -0.3315
    1WF      WF68475   3.004   8.910   3.164 -0.1532  0.0570 -0.0782
    1WF      WF68476  17.898  22.953   1.208 -0.0079  0.1186 -0.1307
    1WF      WF68477   5.430  25.590   8.044  0.3650 -0.0778  0.1056
    1WF      WF68478  22.878  29.092   8.153  0.2796 -0.4362  0.2445
    1WF      WF68479   9.090  25.950   0.412  0.2002  0.1564 -0.1648
    1WF      WF68480  15.128  15.039   9.149 -0.1752  0.1106 -0.2711
    1WF      WF68481   7.124   5.466   7.710 -0.0011  0.1165 -0.3653
    1WF      WF68482   0.184  12.864   7.486 -0.1413  0.1131  0.0469
    1WF      WF68483  13.813   6.242   0.711 -0.0496  0.5700 -0.3030
    1WF      WF68484  24.239  10.686   7.854 -0.0319 -0.0087  0.0024
    1WF      WF68485  29.927  12.090   6.416 -0.0825 -0.0086  0.0981
    1WF      WF68486   0.500  12.718   5.949 -0.3158 -0.1779 -0.2057
    1WF      WF68487  25.206  17.635   0.661  0.4305  0.0711 -0.0746
    1WF      WF68488  14.014   5.738   0.553  0.1727  0.0679 -0.1123
    1WF      WF68489  26.696   1.418   9.148  0.0042  0.3739  0.1705
    1WF      WF68490   8.272  10.069   1.929  0.3153 -0.3009 -0.2232
    1WF      WF68491  13.464   3.475   8.830  0.0632 -0.0563  0.2601
    1WF      WF68492  26.425   7.442   1.245  0.5353 -0.4193  0.0991
    1WF      WF68493   8.176  13.135   9.255 -0.3434 -0.1784 -0.1565
    1WF      WF68494  27.243   2.480   0.923  0.1837  0.2751  0.1559
    1WF      WF68495  27.992  25.146   2.602  0.0970 -0.2617  0.0288
    1WF      WF68496  29.306   9.177   7.977  0.1390  0.0060 -0.1098
    1WF      WF68497  24.933  11.796   8.839 -0.3841  0.0281  0.2503
    1WF      WF68498   8.691  22.367   7.706  0.1069 -0.2692  0.0404
    1WF      WF68499  25.818  17.230   7.770  0.1096 -0.1377  0.1418
    1WF      WF68500  25.660  14.816   7.729  0.0474 -0.2092 -0.0889
    1WF      WF68501  27.609   9.067   9.360  0.0550  0.0695  0.2725
    1WF      WF68502   5.922  29.939   2.863  0.2225  0.1333 -0.1773
    1WF      WF68503  18.147  12.882   7.721  0.2627  0.2046  0.0840
    1WF      WF68504   8.497   0.284   9.208 -0.2044  0.5466 -0.1237
    1WF      WF68505  25.312  24.852   7.548 -0.0935 -0.2150 -0.2018
    1WF      WF68506   2.930   1.929   2.000 -0.0265 -0.0645  0.0349
    1WF      WF68507  16.531   4.305   0.445 -0.2983 -0.1009 -0.2016
    1WF      WF68508  23.574  25.554   8.705 -0.0156 -0.0779 -0.1259
    1WF      WF68509   1.808  28.401   8.642 -0.1555 -0.4246  0.0353
    1WF      WF68510  17.210  18.268   9.000 -0.1121 -0.0270  0.0368
    1WF      WF68511  28.997  29.189   3.051  0.1293 -0.1686  0.0563
    1WF      WF68512  28.306  29.614   1.978 -0.0562 -0.1483 -0.0282
    1WF      WF68513   1.741  17.637   8.703  0.0682  0.0022  0.0543
    1WF      WF68514   9.139  13.310   1.608  0.2370  0.0138  0.1208
    1WF      WF68515  16.225   2.848   9.393 -0.1664  0.0862 -0.2462
    1WF      WF68516  23.712  25.219   1.206 -0.1571 -0.1716  0.4054
    1WF      WF68517  27.838  29.284   6.805 -0.1128  0.0611 -0.4213
    1WF      WF68518   1.861   0.541   1.960  0.1531  0.0882  0.3057
    1WF      WF68519  20.877  18.244   6.082  0.0644 -0.0723 -0.1033
    1WF      WF68520  24.802  28.906   7.611 -0.3524 -0.0114  0.1039
    1WF      WF68521  25.902   2.823   1.407 -0.3113  0.1376  0.0929
    1WF      WF68522  22.725  16.974   7.439  0.3403 -0.0501 -0.3072
    1WF      WF68523  14.186   4.086   2.512 -0.0117 -0.2013 -0.2923
    1WF      WF68524   4.309  18.978   1.436 -0.1741  0.0506  0.0938
    1WF      WF68525  23.962  10.440   0.818 -0.1509  0.3214 -0.0960
    1WF      WF68526  24.947  27.849   1.973  0.3324 -0.1862  0.0337
    1WF      WF68527  23.973  26.496   0.668 -0.0347  0.1503  0.1145
    1WF      WF68528   9.366  21.883   8.443 -0.3071  0.0663  0.0084
    1WF      WF68529  14.372   8.778   0.494 -0.0110 -0.2389  0.2368
    1WF      WF68530   1.470  20.775   7.795  0.0114 -0.0464  0.0057
    1WF      WF68531  17.194   0.696   8.806  0.3333  0.0380  0.1415
    1WF      WF68532  23.027   1.021   7.962  0.1695  0.0739 -0.2549
    1WF      WF68533  13.520  12.990   8.750  0.1456 -0.0490 -0.1008
    1WF      WF68534  16.589   1.470   2.114  0.1713 -0.2266 -0.1193
    1WF      WF68535  14.115   2.343   0.837  0.1591  0.1582 -0.0731
    1WF      WF68536  17.743   2.699   8.924 -0.4248 -0.1074 -0.1387
    1WF      WF68537  20.122  21.116   0.241 -0.0838 -0.0089  0.0391
    1WF      WF68538  15.298  12.099   0.153  0.1653  0.0051 -0.2554
    1WF      WF68539   8.144   4.753   8.411  0.1187 -0.0541  0.0200
    1WF      WF68540   3.896  28.183   3.300  0.1574  0.1368  0.0040
    1WF      WF68541  29.838  26.503   8.049 -0.3574  0.0470 -0.0466
    1WF      WF68542  16.500   3.801   1.175  0.3502 -0.2155 -0.0184
    1WF      WF68543  28.853  28.036   2.226  0.0393  0.0352  0.0952
    1WF      WF68544  14.012   2.773   1.069  0.2732  0.0217  0.2507
    1WF      WF68545   8.320  26.105   8.375 -0.0642  0.0396 -0.2713
    1WF      WF68546  11.709  19.632   8.370 -0.3824  0.0051  0.0056
    1WF      WF68547   2.870  26.045   7.695 -0.1922 -0.1337  0.1179
    1WF      WF68548  13.333   7.577   9.363  0.1360  0.0770 -0.0193
    1WF      WF68549  19.808  12.689   8.844  0.1417 -0.1068  0.0557
    1WF      WF68550  21.489  22.767   8.746  0.2214  0.0142  0.2105
    1WF      WF68551   2.667  24.802   8.020 -0.1659  0.3880 -0.0034
    1WF      WF68552   4.314   6.218   0.974 -0.1030 -0.4002 -0.1126
    1WF      WF68553  29.683   8.070   0.159  0.0096  0.1843  0.2311
    1WF      WF68554  24.114   2.640   2.340  0.1193  0.2200 -0.1435
    1WF      WF68555   0.625  20.116   0.528 -0.0897  0.3181  0.0129
    1WF      WF68556  29.452   0.212   9.361 -0.0531 -0.0020 -0.1111
    1WF      WF68557  19.409  27.197   0.955 -0.1064  0.1833  0.1694
    1WF      WF68558  21.115  20.126   7.822 -0.1686 -0.1010  0.1312
    1WF      WF68559  20.602  18.380   1.219 -0.1557  0.0986 -0.1109
    1WF      WF68560   0.361  30.076   7.938  0.2679  0.0054  0.1622
    1WF      WF68561  19.588  24.185   8.089  0.1035 -0.2540  0.2416
    1WF      WF68562  15.103  10.408   1.540 -0.0869 -0.1482  0.0329
    1WF      WF68563  29.400   5.148   7.672  0.1222 -0.1566  0.0404
    1WF      WF68564  15.984   7.720   2.430 -0.0079 -0.1300 -0.1822
    1WF      WF68565  19.185  22.683   8.873  0.0679  0.0491  0.0871
    1WF      WF68566  28.205  25.195   8.815  0.1821  0.1155 -0.1390
    1WF      WF68567  25.491   9.858   8.217  0.1232  0.2746  0.1723
    1WF      WF68568   0.841   1.220   1.328 -0.0316 -0.0141 -0.1828
    1WF      WF68569  15.117  21.656   0.454  0.1418  0.1981  0.0614
    1WF      WF68570  27.172  20.224   8.277  0.0591 -0.2336 -0.2952
    1WF      WF68571   2.600   6.464   8.602  0.1442  0.1388 -0.3474
    1WF      WF68572  14.572   8.319   0.298 -0.1541  0.1116  0.0351
    1WF      WF68573  28.382  11.732   5.303 -0.2542 -0.1440  0.0961
    1WF      WF68574  19.932  28.732   2.081 -0.1787  0.2650 -0.1146
    1WF      WF68575   4.472  26.424   8.270 -0.1539 -0.1733  0.0489
    1WF      WF68576  12.574  12.215   0.426  0.1057 -0.1128 -0.0583
    1WF      WF68577  11.931  24.566   8.242 -0.1308 -0.0023 -0.2906
    1WF      WF68578  14.707   2.046   3.972  0.1044 -0.2921 -0.0450
    1WF      WF68579   3.757  22.315   8.795  0.2564 -0.0661 -0.1861
    1WF      WF68580   0.023   0.818   0.733 -0.1644  0.2639  0.2559
    1WF      WF68581  13.270  21.452   7.963  0.0672 -0.0826 -0.0476
    1WF      WF68582  17.124  24.575   7.532  0.0551 -0.0470  0.0287
    1WF      WF68583   2.554   9.589   7.786  0.2329 -0.0521 -0.2399
    1WF      WF68584  22.406  21.583   7.263 -0.1620 -0.0613 -0.0104
    1WF      WF68585  25.284  15.824   0.905  0.0895 -0.2604  0.0207
    1WF      WF68586   3.422  14.250   0.735 -0.3881 -0.0875  0.3178
    1WF      WF68587  14.465  28.207   2.259  0.3114  0.1517 -0.0145
    1WF      WF68588  23.029  12.799   6.138  0.1254  0.3652  0.0553
    1WF      WF68589  20.126  18.672   8.844 -0.1097 -0.6122  0.0135
    1WF      WF68590  16.713  21.705   8.576  0.0767  0.0530 -0.1255
    1WF      WF68591  15.079  30.121   8.708  0.1113  0.0642 -0.1975
    1WF      WF68592   6.671  10.476   8.270 -0.0471  0.1141 -0.2161
    1WF      WF68593   9.977   5.877   7.157  0.3021  0.0434  0.0447
    1WF      WF68594  18.616   0.737   8.348  0.1791  0.3456  0.1460
    1WF      WF68595  19.715   1.876   9.215  0.0080  0.0174  0.1761
    1WF      WF68596  14.648  12.234   2.253 -0.0593  0.0703 -0.1530
    1WF      WF68597  18.091   3.833   9.150 -0.0350 -0.1006  0.0321
    1WF      WF68598   2.498  25.881   0.567  0.2704 -0.0482 -0.1594
    1WF      WF68599  12.070  22.367   1.055 -0.0230  0.1096 -0.0966
    1WF      WF68600   9.929  12.385   0.473 -0.0634  0.0641 -0.0030
    1WF      WF68601  29.714  17.043   0.227  0.3252  0.1780 -0.1361
    1WF      WF68602  16.759  13.777   0.386  0.0687  0.0362 -0.0783
    1WF      WF68603  21.660  26.819   0.608 -0.1125  0.2300 -0.1914
    1WF      WF68604   1.402   7.820   0.318 -0.2032  0.0617  0.0739
    1WF      WF68605   6.942  21.981   0.486 -0.1138  0.0958 -0.2604
    1WF      WF68606  15.399   0.722   2.122 -0.2842  0.3829  0.2302
    1WF      WF68607  12.021  30.012   3.519 -0.1227  0.3852  0.1009
    1WF      WF68608  22.667   4.237   0.688  0.3937 -0.0928 -0.0905
    1WF      WF68609  30.065  26.649   7.585 -0.3953  0.2198  0.0581
    1WF      WF68610  24.363   0.021   8.408  0.0446 -0.1204  0.0414
    1WF      WF68611  29.151   7.731   0.966 -0.0552  0.3419 -0.1136
    1WF      WF68612   1.156  29.936   0.573 -0.0643  0.1936 -0.2532
    1WF      WF68613  29.891  23.490   0.500 -0.1662 -0.0138  0.5488
    1WF      WF68614  27.006  23.855   1.394  0.1605 -0.0527 -0.2633
    1WF      WF68615  22.629  18.120   1.219  0.0121 -0.0046  0.3379
    1WF      WF68616  16.082  22.533   9.134  0.3312  0.1548  0.0838
    1WF      WF68617   3.544  17.935   8.868 -0.3133  0.0480  0.1377
    1WF      WF68618  25.531  26.909   1.028  0.2897  0.1140  0.1727
    1WF      WF68619  16.837  20.062   6.724  0.0214  0.1142  0.1832
    1WF      WF68620  14.512   8.187   9.217  0.1576  0.4230 -0.0462
    1WF      WF68621  26.694   0.906   8.365 -0.0359  0.0756 -0.0894
    1WF      WF68622  14.289   6.888   1.191 -0.0450  0.0286 -0.0442
    1WF      WF68623  18.895  27.576   3.441 -0.0306  0.1705 -0.1723
    1WF      WF68624   4.490   3.286   3.030  0.2298  0.1319 -0.1808
    1WF      WF68625   3.357  18.013   0.059  0.0103  0.2233  0.1366
    1WF      WF68626  27.291  17.022   5.960  0.1030  0.1148  0.0449
    1WF      WF68627  12.562  17.175   0.764 -0.0509  0.0343  0.0151
    1WF      WF68628   3.043   8.068   0.648  0.0062 -0.0292  0.2054
    1WF      WF68629  11.714  18.644   0.926 -0.1477  0.1895 -0.1754
    1WF      WF68630   3.712  14.253   7.311 -0.0172  0.0427 -0.1332
    1WF      WF68631  25.664  18.634   8.619 -0.0084 -0.0709 -0.1466
    1WF      WF68632  29.433  26.088   9.372 -0.3019  0.1718 -0.0458
    1WF      WF68633  25.030   9.983   1.291  0.5633  0.4396  0.0057
    1WF      WF68634   1.767   7.550   0.618  0.0541 -0.0927 -0.3799
    1WF      WF68635  19.722  21.863   0.806  0.1808 -0.4682  0.0874
    1WF      WF68636  19.249  19.588   0.347 -0.0344  0.0039 -0.2985
    1WF      WF68637  22.566   8.155   1.435 -0.3213 -0.0412  0.0417
    1WF      WF68638   6.003  10.368   2.716 -0.1043  0.0676  0.1109
    1WF      WF68639  27.656  20.367   8.290 -0.1668  0.3154 -0.0921
    1WF      WF68640  16.192  13.386   7.348  0.1109  0.0701  0.2311
    1WF      WF68641  28.486  15.752   7.606 -0.0326 -0.1562  0.0415
    1WF      WF68642  17.691   6.737   0.176 -0.0227  0.1375 -0.0418
    1WF      WF68643   8.711  23.945   8.960  0.0738 -0.0809  0.1366
    1WF      WF68644  17.989   4.029   0.189  0.1338  0.0911 -0.2817
    1WF      WF68645  25.262   7.410   0.238 -0.1558 -0.3250 -0.3321
    1WF      WF68646   3.439   6.326   0.010 -0.2243  0.0724 -0.3075
    1WF      WF68647   8.752   0.144   8.191  0.0248 -0.0829  0.0749
    1WF      WF68648  17.535  12.524   8.516 -0.2509 -0.1094  0.1739
    1WF      WF68649  16.168   5.455   1.483  0.0240 -0.0287  0.1486
    1WF      WF68650   4.431   5.976   2.438  0.0954 -0.2659 -0.1170
    1WF      WF68651  19.791  21.544   0.373  0.1275 -0.2059 -0.3385
    1WF      WF68652  25.860  19.903   5.941  0.0997  0.0873 -0.0936
    1WF      WF68653  18.095  20.880   8.850 -0.1747  0.2330  0.2399
    1WF      WF68654  11.040   3.477   1.927 -0.0891 -0.0029 -0.2266
    1WF      WF68655   2.995  11.544   1.673  0.0404 -0.1224 -0.0756
    1WF      WF68656   5.365   8.062   8.130  0.1332 -0.0378 -0.0337
    1WF      WF68657  14.715  22.220   9.210 -0.0048  0.2121  0.0656
    1WF      WF68658  29.540  16.746   7.926 -0.3547  0.0270  0.0900
    1WF      WF68659  25.346   1.315   0.283  0.0170  0.0341 -0.0745
    1WF      WF68660   6.905  19.269   0.055 -0.2809 -0.1039 -0.0103
    1WF      WF68661  26.602  26.901   0.504  0.0444  0.0397 -0.0543
    1WF      WF68662  29.525  11.225   2.153 -0.2560  0.2032  0.1777
    1WF      WF68663   5.034  18.286   9.071 -0.0286 -0.0908 -0.0149
    1WF      WF68664  24.316  22.547   1.656 -0.0872 -0.0698 -0.0586
    1WF      WF68665  14.854  28.291   2.614  0.1787 -0.3034 -0.0510
    1WF      WF68666   2.218  22.016   8.620  0.1628  0.0784  0.0255
    1WF      WF68667  13.725   7.511   1.724  0.0223 -0.2296  0.0311
    1WF      WF68668  25.208   9.202   0.919  0.0296  0.0785 -0.0838
    1WF      WF68669  25.769   3.202   1.176  0.1843  0.1097  0.5000
    1WF      WF68670   8.616  28.908   8.134 -0.0008  0.0032 -0.2317
    1WF      WF68671  27.218  25.863   1.439  0.1202  0.0846 -0.1810
    1WF      WF68672  10.805  16.201   8.146 -0.0857 -0.1371  0.0670
    1WF      WF68673  20.555  26.501   6.414  0.1381 -0.1950  0.0020
    1WF      WF68674  20.906  10.085   9.338 -0.0393  0.1483 -0.1297
    1WF      WF68675  16.367   5.709   8.323  0.0299  0.0513 -0.0490
    1WF      WF68676  14.253  23.997   8.834  0.0035 -0.0161  0.1306
    1WF      WF68677  14.867  18.496   0.136 -0.0486 -0.1896  0.1417
    1WF      WF68678   6.001  23.315   9.177 -0.1564  0.0640  0.0478
    1WF      WF68679  14.004   5.510   8.747  0.0808 -0.3181  0.0754
    1WF      WF68680   6.530  18.938   8.123  0.2635  0.1046  0.0051
    1WF      WF68681   1.060   9.717   0.008 -0.1816  0.0939 -0.1120
    1WF      WF68682  28.762  13.525   1.008 -0.0378  0.3068  0.1669
    1WF      WF68683  25.899   6.712   9.229  0.1272  0.0460 -0.0686
    1WF      WF68684  16.194  10.722   8.928  0.0078  0.0682  0.1529
    1WF      WF68685  29.511  11.868   6.622 -0.1163  0.1266  0.2096
    1WF      WF68686  20.701  13.437   7.215 -0.0029 -0.0997  0.0250
    1WF      WF68687   8.512  29.774   1.059  0.1472 -0.1448 -0.1036
    1WF      WF68688  29.660  13.540   7.744  0.0208 -0.2717 -0.1323
    1WF      WF68689   7.396  18.485   8.318  0.0231 -0.1999 -0.1911
    1WF      WF68690  23.646   1.585   7.544  0.1859 -0.1109  0.1057
    1WF      WF68691  19.847  19.029   9.062 -0.0644  0.0720  0.0666
    1WF      WF68692  14.343  25.443   1.762  0.1127  0.3942  0.0842
    1WF      WF68693  27.964  16.787   8.599  0.0531 -0.2606 -0.1563
    1WF      WF68694   0.149   3.245   8.959  0.1721  0.0070  0.0349
    1WF      WF68695   4.056   7.663   8.445 -0.2276 -0.1152  0.0586
    1WF      WF68696  21.170   0.878   3.200  0.0526  0.0170  0.1237
    1WF      WF68697  16.731   4.001   0.809 -0.0983  0.0076 -0.0328
    1WF      WF68698  23.297  28.737   1.752  0.0737  0.0535  0.1885
    1WF      WF68699  11.507   1.969   0.385  0.1070 -0.0388  0.0793
    1WF      WF68700  29.113   1.881   1.118  0.3155 -0.1129  0.3139
    1WF      WF68701   6.816  19.302   8.444 -0.1131  0.2282  0.1118
    1WF      WF68702  18.059   1.319   1.476  0.0984 -0.1357  0.0567
    1WF      WF68703  27.857  18.941   8.391 -0.1546  0.3292 -0.2065
    1WF      WF68704  16.472  19.084   8.295  0.2287  0.0687 -0.2207
    1WF      WF68705   9.170  18.747   7.647  0.2098 -0.4367  0.1875
    1WF      WF68706  25.848  18.613   0.318 -0.0272 -0.2084  0.1253
    1WF      WF68707   1.501   2.012   0.036 -0.1221 -0.2675 -0.1287
    1WF      WF68708   7.796  24.139   0.401 -0.2596  0.3657 -0.0045
    1WF      WF68709   0.763   0.132   0.592 -0.2113  0.0476 -0.0975
    1WF      WF68710   7.539   2.071   9.244 -0.1197 -0.3113  0.0719
    1WF      WF68711   9.951  18.884   7.577 -0.0378 -0.1115  0.1164
    1WF      WF68712   6.071  22.510   6.395 -0.0793  0.1118 -0.0595
    1WF      WF68713  10.266  10.631   2.228  0.1760 -0.0278 -0.3093
    1WF      WF68714  26.612  12.904   7.592 -0.2292 -0.1221 -0.0534
    1WF      WF68715   6.364  12.572   9.110  0.2630 -0.3019 -0.0692
    1WF      WF68716  11.738   0.923   9.134 -0.0297  0.2122 -0.1425
    1WF      WF68717  16.751  28.899   1.841 -0.2047 -0.0869 -0.1305
    1WF      WF68718   6.431   4.675   3.207 -0.1886  0.1867  0.1235
    1WF      WF68719  14.752  25.300   8.761 -0.2169  0.0428 -0.0110
    1WF      WF68720  17.975  25.232   1.511 -0.0624  0.5439 -0.1890
    1WF      WF68721   7.243  12.018   1.421 -0.0957 -0.2381 -0.0414
    1WF      WF68722  15.451   5.421   1.013  0.1843  0.3582 -0.1809
    1WF      WF68723   4.369  19.864   8.777 -0.1698 -0.0124 -0.1611
    1WF      WF68724  13.392   2.147   2.476 -0.1713 -0.3129  0.1208
    1WF      WF68725  13.470   9.074   0.666 -0.0978  0.0010 -0.0172
    1WF      WF68726   1.681  11.733   0.156  0.2828  0.0170  0.0226
    1WF      WF68727  17.895   6.586   2.539  0.1117 -0.1429 -0.1424
    1WF      WF68728  19.720   7.028   7.558  0.1771 -0.0916 -0.0884
    1WF      WF68729   5.432  18.808   7.344 -0.1463 -0.2508  0.1197
    1WF      WF68730  15.605  12.122   9.075  0.0163  0.1932  0.1840
    1WF      WF68731   7.343  26.069   6.792 -0.0228  0.1496  0.2229
    1WF      WF68732  16.728   6.079   8.334  0.2874 -0.1569 -0.1585
    1WF      WF68733  14.291  29.170   8.784 -0.0855  0.0151  0.0172
    1WF      WF68734  19.828   6.566   7.147  0.1748 -0.0682  0.1063
    1WF      WF68735  11.688   4.174   8.322 -0.3027 -0.0680  0.2155
    1WF      WF68736   5.001  10.530   9.132  0.0104  0.0121 -0.2759
    1WF      WF68737  28.383  26.318   1.431 -0.0252  0.0236  0.4428
    1WF      WF68738   3.180   0.679   9.084 -0.1875 -0.0788 -0.1726
    1WF      WF68739  27.128  19.312   0.561 -0.3059 -0.0437  0.2255
    1WF      WF68740  21.914   7.801   0.854 -0.1539  0.1326 -0.0126
    1WF      WF68741  10.333  25.137   5.988  0.3307 -0.3797 -0.4206
    1WF      WF68742   7.932  24.852   7.674  0.0300 -0.3698 -0.1921
    1WF      WF68743  23.221  23.338   7.572 -0.0087  0.2752  0.0226
    1WF      WF68744   6.841  12.988   6.997  0.2427 -0.0209 -0.1177
    1WF      WF68745   8.189  25.645   8.058  0.0614  0.0384 -0.1670
    1WF      WF68746  26.566  17.219   0.549  0.1146  0.1850  0.0602
    1WF      WF68747  13.897  24.373   8.788  0.2103  0.0236 -0.0515
    1WF      WF68748  11.528  13.560   8.674  0.0788  0.2429  0.0459
    1WF      WF68749   1.267  28.211   8.202 -0.2558  0.1120 -0.0497
    1WF      WF68750  28.470  27.444   7.956 -0.2550 -0.0480 -0.0826
    1WF      WF68751   9.204  10.889   0.673 -0.1306 -0.3646  0.2886
    1WF      WF68752  14.746  18.180   9.207  0.2076  0.1702  0.3049
    1WF      WF68753  25.703   1.255   7.153 -0.4152  0.1864 -0.0857
    1WF      WF68754  14.766  11.535   9.163  0.0334 -0.0473 -0.2259
    1WF      WF68755  25.218  17.876   6.963 -0.2785 -0.2222  0.2281
    1WF      WF68756  27.238   7.035   7.656  0.2347 -0.1613  0.0886
    1WF      WF68757  26.566  19.564   0.449 -0.2663 -0.2738  0.1172
    1WF      WF68758  23.655  14.849   0.074 -0.1799  0.1373 -0.0145
    1WF      WF68759  12.537  22.416   1.204 -0.3541  0.0028  0.5301
    1WF      WF68760   3.309  13.353   7.815 -0.0739  0.4216 -0.3569
    1WF      WF68761  27.486  19.954   6.740  0.5013  0.1095 -0.0327
    1WF      WF68762  26.080  17.072   8.573  0.1043 -0.3078  0.2519
    1WF      WF68763  12.265  28.942   6.596  0.0997 -0.1423 -0.0004
    1WF      WF68764   2.756   6.464   1.824  0.1398  0.0631 -0.0242
    1WF      WF68765  25.678  10.607   0.490  0.0254 -0.0738  0.2594
    1WF      WF68766  26.794  25.581   1.424  0.3424 -0.0062 -0.0448
    1WF      WF68767   8.779   2.348   0.797  0.1324 -0.1954 -0.1961
    1WF      WF68768   8.466  12.135   2.531  0.0372 -0.1274 -0.0583
    1WF      WF68769   4.054   0.540   2.702 -0.0300  0.0788 -0.0737
    1WF      WF68770  14.405  18.563   0.320  0.0445  0.1570  0.0294
    1WF      WF68771  28.174  24.030   8.921  0.0227 -0.3135 -0.0523
    1WF      WF68772  11.479  17.163   0.814  0.3195 -0.2286 -0.1503
    1WF      WF68773  24.981  27.337   8.921 -0.3534 -0.1382 -0.1466
    1WF      WF68774  20.018   3.741   0.235 -0.1590  0.1034  0.0842
    1WF      WF68775  29.349  13.624   8.542  0.2310  0.1000 -0.1362
    1WF      WF68776  27.710  17.451   6.600  0.2034  0.1288  0.1730
    1WF      WF68777  24.247  20.195   9.380  0.1144  0.1388  0.1654
    1WF      WF68778   6.297  24.134   7.850 -0.0706  0.0031 -0.0789
    1WF      WF68779  12.116  28.294   0.690  0.3569  0.0307 -0.0235
    1WF      WF68780  23.714  23.605   7.643  0.3666 -0.0854 -0.0766
    1WF      WF68781  24.510   5.114   0.146  0.3052  0.0399  0.1162
    1WF      WF68782  10.738   0.034   1.782 -0.1994  0.1684  0.2441
    1WF      WF68783  16.253  16.059   7.878 -0.1958 -0.0316 -0.0863
    1WF      WF68784  20.358   5.940   0.804  0.2013 -0.2588  0.0470
    1WF      WF68785   4.999  22.601   7.533 -0.1505  0.2621  0.1243
    1WF      WF68786  11.000  20.030   8.602  0.0381  0.2483  0.0694
    1WF      WF68787   3.645   2.623   1.439  0.0942  0.0597  0.3540
    1WF      WF68788  14.236  13.098   2.147 -0.1572 -0.0219  0.4637
    1WF      WF68789  23.686  14.257   7.319 -0.2517  0.0550 -0.1115
    1WF      WF68790   0.723  16.341   8.153  0.0554 -0.0698  0.1929
    1WF      WF68791  18.770   2.230   1.492  0.0343 -0.0239  0.1123
    1WF      WF68792  22.570  12.853   0.674 -0.1522  0.1282 -0.3553
    1WF      WF68793  23.373   8.063   7.816  0.0918  0.1636 -0.2438
    1WF      WF68794   5.473  29.916   8.163 -0.1535  0.0829 -0.1190
    1WF      WF68795  13.149  10.865   9.070 -0.0666 -0.0748  0.0721
    1WF      WF68796   3.701   6.224   1.604 -0.3679 -0.3354 -0.1360
    1WF      WF68797   5.395   3.704   8.668 -0.1603  0.1414  0.4267
    1WF      WF68798  21.674   8.893   1.629 -0.2813  0.3174  0.0198
    1WF      WF68799  19.009  20.429   6.267  0.2887 -0.0624 -0.3268
    1WF      WF68800  29.146  10.927   8.301  0.0960  0.2072 -0.0542
    1WF      WF68801  26.446  14.780   1.108  0.1418  0.1989  0.0890
    1WF      WF68802  27.610  16.672   6.037  0.1775  0.0549  0.0629
    1WF      WF68803  26.220  24.253   7.703 -0.0527 -0.0561 -0.0383
    1WF      WF68804  29.822   4.180   1.058  0.2452 -0.0889 -0.0506
    1WF      WF68805  29.356   4.476   1.820 -0.0448 -0.0368  0.0405
    1WF      WF68806  24.663  13.557   8.227  0.0324 -0.4192 -0.1258
    1WF      WF68807  24.846   1.659   7.422 -0.0733 -0.0763 -0.1097
    1WF      WF68808  18.369  10.246   0.870  0.3073 -0.1017 -0.1154
    1WF      WF68809   0.977   0.643   8.967 -0.0532 -0.1037 -0.0019
    1WF      WF68810  10.658  27.269   9.379 -0.0687  0.0584  0.0242
    1WF      WF68811  18.731  28.560   0.505  0.0789  0.0962 -0.1062
    1WF      WF68812  15.659  28.628   1.375  0.2882 -0.0911 -0.1024
    1WF      WF68813   4.153   1.087   8.189 -0.0498 -0.0777 -0.2485
    1WF      WF68814   1.777   0.970   8.372  0.1184 -0.0400  0.1315
    1WF      WF68815   2.813  15.021   0.932  0.2720  0.2250  0.0218
    1WF      WF68816   5.875   6.643   7.976 -0.1240 -0.0502 -0.4309
    1WF      WF68817  13.629  22.074   0.967 -0.4130 -0.0856 -0.1861
    1WF      WF68818   5.578  23.142   8.796 -0.0561  0.0869  0.0793
    1WF      WF68819   1.113  15.980   8.237  0.3129  0.1421 -0.2323
    1WF      WF68820  15.528   8.229   1.477  0.1232 -0.0658  0.0317
    1WF      WF68821  26.854  17.068   0.952 -0.3199 -0.0711 -0.1136
    1WF      WF68822  26.428  18.837   6.688  0.2254  0.2660 -0.1241
    1WF      WF68823   1.401  14.353   0.336  0.0306 -0.1039 -0.0391
    1WF      WF68824  19.618   0.106   6.868  0.1554  0.0395 -0.1496
    1WF      WF68825   7.052   9.156   8.966  0.2562  0.1441 -0.0285
    1WF      WF68826   5.110   6.704   9.022  0.0678  0.0469  0.0435
    1WF      WF68827   2.001  24.167   9.052  0.1974  0.0296  0.1824
    1WF      WF68828  27.890  12.075   6.929 -0.1801  0.0400  0.1473
    1WF      WF68829  28.296  27.096   7.563 -0.0455  0.1638  0.2748
    1WF      WF68830   5.275  13.387   0.551  0.0013  0.2307 -0.0914
    1WF      WF68831  25.082  17.491   6.667  0.2983  0.2245 -0.3100
    1WF      WF68832  10.213  15.023   1.356  0.0348 -0.0980 -0.1713
    1WF      WF68833  21.228  19.259   1.385 -0.2160 -0.2319 -0.1732
    1WF      WF68834  25.795  20.465   8.082  0.0813 -0.0820 -0.0473
    1WF      WF68835   5.097  30.004   0.479  0.0729  0.2507  0.2788
    1WF      WF68836  13.238  20.039   7.910 -0.1498  0.0397 -0.1109
    1WF      WF68837   6.640  13.437   8.804 -0.0894  0.0359  0.4065
    1WF      WF68838  12.160   4.562   0.229  0.2912  0.2672  0.0113
    1WF      WF68839   6.358  23.627   9.167 -0.0218  0.0851  0.1366
    1WF      WF68840  17.929   4.587   0.106 -0.0634 -0.3314  0.0026
    1WF      WF68841   7.626  16.233   0.461  0.1185 -0.1884  0.1153
    1WF      WF68842   0.710   6.645   1.482  0.3678 -0.0197  0.1041
    1WF      WF68843  12.892   1.027   1.129  0.2338  0.1495 -0.4987
    1WF      WF68844   4.277   8.162   0.952  0.1148  0.0213 -0.1403
    1WF      WF68845   5.795   0.011   9.264  0.0736  0.1030  0.0161
    1WF      WF68846  20.957   2.990   0.426  0.0013  0.2075  0.0914
    1WF      WF68847   0.672   2.729   7.944 -0.1222 -0.1447  0.0661
    1WF      WF68848  16.898  11.889   8.273  0.1244  0.2575  0.3905
    1WF      WF68849  14.843   1.067   1.333  0.1337  0.1737  0.0247
    1WF      WF68850  11.542   1.248   8.734 -0.0052 -0.0995 -0.0536
    1WF      WF68851   6.228  20.245   0.835 -0.0152  0.3753 -0.1253
    1WF      WF68852   0.628  11.065   5.716 -0.1736 -0.0003  0.1453
    1WF      WF68853   2.454  26.062   0.048 -0.0039  0.0045  0.2194
    1WF      WF68854  18.110  27.559   8.702 -0.6474 -0.3851 -0.2056
    1WF      WF68855  27.052  16.129   7.173 -0.1560  0.1731  0.0106
    1WF      WF68856  10.213   1.503   3.489 -0.0957 -0.2896 -0.0382
    1WF      WF68857  21.971  21.233   9.347 -0.2481  0.2834 -0.3353
    1WF      WF68858  21.699  11.045   8.189  0.0655 -0.1690 -0.1183
    1WF      WF68859   3.229  23.452   1.043 -0.1017 -0.5569  0.1993
    1WF      WF68860   1.881   6.419   8.512 -0.0061 -0.0162 -0.1002
    1WF      WF68861   7.813  15.093   0.773 -0.0625 -0.1583  0.1689
    1WF      WF68862  23.092   1.941   1.557 -0.0212  0.1023  0.3134
    1WF      WF68863  21.127  16.942   7.391 -0.3346  0.5141  0.0046
    1WF      WF68864  13.209   8.299   7.340 -0.2195 -0.0482 -0.0435
    1WF      WF68865  24.063   1.213   1.277  0.0560 -0.3365 -0.1148
    1WF      WF68866  24.002  15.610   8.687  0.0706 -0.2272 -0.0027
    1WF      WF68867  18.853   7.004   9.336 -0.4181 -0.2652 -0.0873
    1WF      WF68868  16.405  16.650   1.431  0.1060 -0.2840 -0.0062
    1WF      WF68869  13.132  10.384   8.963  0.0716  0.1568  0.3389
    1WF      WF68870  28.702  14.125   0.168 -0.1187  0.1075  0.1290
    1WF      WF68871   6.874  13.799   8.266  0.1582  0.1772  0.0517
    1WF      WF68872  29.772   4.475   2.251 -0.2737  0.2100 -0.1889
    1WF      WF68873   9.914  22.696   8.957  0.2710 -0.0242  0.0060
    1WF      WF68874   2.959  19.531   6.435  0.2108 -0.1247  0.1929
    1WF      WF68875  15.624  26.146   0.260 -0.0594  0.2203 -0.0343
    1WF      WF68876  23.060  18.463   7.360 -0.0552 -0.0579  0.0159
    1WF      WF68877   4.808   9.080   8.159  0.1679  0.0549  0.2280
    1WF      WF68878   0.691  12.794   7.704  0.0441 -0.0953  0.1260
    1WF      WF68879  18.130  22.911   8.702  0.0653  0.1232 -0.2726
    1WF      WF68880  18.198  14.697   7.569 -0.0771  0.2751  0.2379
    1WF      WF68881  18.620  26.813   0.469  0.2937  0.1499 -0.2023
    1WF      WF68882   2.137  13.540   0.609  0.2430  0.1346  0.0854
    1WF      WF68883  19.153   0.473   0.223  0.0825 -0.0805  0.4615
    1WF      WF68884  25.726   1.444   7.654  0.1690  0.0599  0.0335
    1WF      WF68885   9.227  13.819   1.723 -0.2047  0.1252  0.2260
    1WF      WF68886  21.756   7.836   8.707 -0.1090 -0.2010 -0.0222
    1WF      WF68887   6.156  20.687   0.528  0.0376  0.2361  0.0200
    1WF      WF68888   4.810   1.499   1.976  0.2057  0.0691  0.2635
    1WF      WF68889   8.483   0.454   1.635  0.0343 -0.0333 -0.0291
    1WF      WF68890   5.402  29.343   2.262  0.3303  0.0170 -0.1363
    1WF      WF68891   9.359  14.511   8.835  0.1155  0.1029  0.2378
    1WF      WF68892  21.408  17.351   7.359 -0.1713  0.3567  0.0690
    1WF      WF68893   3.040   9.844   1.037  0.1958  0.2927 -0.0995
    1WF      WF68894  28.591  23.763   9.018  0.1824 -0.2795  0.1899
    1WF      WF68895  29.191   7.416   7.632 -0.0037  0.0251  0.2720
    1WF      WF68896  15.651  20.181   0.317  0.1477  0.2652  0.0973
    1WF      WF68897  15.676  24.359   8.141  0.0942  0.1518  0.2518
    1WF      WF68898  20.150  26.142   8.192  0.1181 -0.1688  0.0905
    1WF      WF68899  11.862  22.698   8.906  0.3330  0.0583 -0.0157
    1WF      WF68900  18.860   0.241   0.514 -0.2372 -0.3081  0.1286
    1WF      WF68901  14.340  30.083   1.327 -0.2283  0.2526  0.0720
    1WF      WF68902  19.805  28.295   0.433 -0.1756  0.1958  0.0846
    1WF      WF68903  18.094   5.505   1.193  0.1680 -0.1646  0.0499
    1WF      WF68904  13.945  16.737   9.340 -0.0920 -0.1908  0.2522
    1WF      WF68905  21.129   1.097   8.557  0.2107 -0.1848  0.2459
    1WF      WF68906   6.083  29.168   1.541  0.0844  0.0299  0.1061
    1WF      WF68907   8.490  19.048   2.299 -0.3853  0.2928  0.2348
    1WF      WF68908  10.362   2.023   7.993  0.0306  0.1994  0.1697
    1WF      WF68909  26.069  27.741   1.567 -0.0522  0.0188 -0.0487
    1WF      WF68910   4.794  10.215   8.835 -0.2413  0.0739 -0.0584
    1WF      WF68911  11.102  20.433   0.950 -0.0877  0.0193 -0.4116
    1WF      WF68912   9.199  28.477   1.756  0.0438 -0.0460  0.2037
    1WF      WF68913  22.043  17.416   0.138 -0.0467  0.0245 -0.2654
    1WF      WF68914  18.845   2.278   0.512  0.4420 -0.2562  0.0257
    1WF      WF68915  10.130  22.410   9.312  0.0572 -0.0688  0.2096
    1WF      WF68916  15.513   3.131   3.035 -0.2586 -0.0803 -0.1408
    1WF      WF68917   0.069  26.795   8.026  0.2635 -0.0390  0.1110
    1WF      WF68918  15.161   3.935   8.267 -0.1072  0.3227  0.0365
    1WF      WF68919  25.522  25.089   8.753 -0.0957  0.0619  0.1607
    1WF      WF68920  22.315  16.300   7.340 -0.0131  0.2375  0.2366
    1WF      WF68921  24.108   3.991   9.182  0.1307 -0.1020  0.1209
    1WF      WF68922   3.307  18.754   7.069 -0.0545  0.2490  0.0488
    1WF      WF68923   0.486  13.100   0.103 -0.1200 -0.0815  0.7913
    1WF      WF68924   4.008  12.684   7.516  0.0714 -0.1139  0.0855
    1WF      WF68925  22.476  25.866   8.422  0.0508  0.0851  0.0215
    1WF      WF68926  29.595   5.617   7.395 -0.1018  0.2434  0.1050
    1WF      WF68927  25.211  23.874   3.330  0.0532 -0.0118 -0.1724
    1WF      WF68928  18.566   7.489   0.051 -0.1562  0.0199 -0.0738
    1WF      WF68929  16.436   4.423   7.441 -0.1243  0.1406 -0.2807
    1WF      WF68930   7.308  28.310   0.108  0.1014  0.0774 -0.2597
    1WF      WF68931   6.965   7.590   8.854  0.1102  0.1619  0.1685
    1WF      WF68932  22.013   9.102   8.262  0.2641 -0.2855 -0.0289
    1WF      WF68933   7.732   2.368   1.901 -0.0520 -0.0552 -0.1580
    1WF      WF68934  11.124  17.962   8.664 -0.1203 -0.1070 -0.0459
    1WF      WF68935   6.711  19.140   0.901  0.1021  0.1481 -0.4962
    1WF      WF68936  14.727   7.029   0.065 -0.0183 -0.0680  0.0841
    1WF      WF68937  25.496  26.430   1.034  0.1485 -0.3619  0.0290
    1WF      WF68938   4.460  18.485   7.077 -0.2645  0.2841 -0.1613
    1WF      WF68939   6.418  12.071   9.255  0.0162 -0.1716 -0.1353
    1WF      WF68940   1.758   4.390   1.123 -0.1696  0.0049  0.0986
    1WF      WF68941  24.910  15.497   0.693 -0.1280 -0.1923  0.1905
    1WF      WF68942  17.224  19.709   2.084 -0.2085  0.2512 -0.0484
    1WF      WF68943  20.531  24.139   2.246 -0.3148 -0.0425  0.2604
    1WF      WF68944  11.478  22.519   6.200 -0.0475 -0.2869 -0.5819
    1WF      WF68945   5.150  19.507   1.196 -0.0223 -0.1517 -0.1133
    1WF      WF68946   0.579  12.013   6.906  0.1488 -0.1532 -0.0207
    1WF      WF68947   9.776  10.416   2.461 -0.3954 -0.0071 -0.0442
    1WF      WF68948  21.787  14.552   6.009  0.1399  0.2032 -0.3113
    1WF      WF68949  20.180   7.883   0.715 -0.0296 -0.1123  0.1244
    1WF      WF68950   0.470  26.907   1.513  0.0142  0.0086 -0.0021
    1WF      WF68951   2.688  30.047   2.742  0.0771 -0.1680 -0.2083
    1WF      WF68952   0.908   8.729   0.988 -0.0177 -0.3102 -0.0521
    1WF      WF68953  18.323   4.326   1.813 -0.1354 -0.1721 -0.1309
    1WF      WF68954  10.201  26.226   3.241 -0.2865  0.1469 -0.0322
    1WF      WF68955  18.614  18.997   0.068 -0.4286 -0.1760  0.0010
    1WF      WF68956   5.313  26.939   0.577 -0.4794 -0.0315 -0.1244
    1WF      WF68957   0.072  12.070   6.815 -0.0513  0.0727 -0.2702
    1WF      WF68958  18.979  27.006   1.261  0.0731  0.3169  0.0649
    1WF      WF68959   6.724   1.713   2.097 -0.0925 -0.0661  0.1728
    1WF      WF68960  15.320   8.910   8.543 -0.2130 -0.4430 -0.1375
    1WF      WF68961   4.957   2.467   9.097  0.1261 -0.1186  0.1989
    1WF      WF68962   7.566  26.534   0.927  0.0762  0.0294  0.1154
    1WF      WF68963  10.335  14.304   6.849 -0.2314  0.0494 -0.0658
    1WF      WF68964   6.203  20.397   7.050  0.2128  0.2052 -0.0231
    1WF      WF68965  20.099  15.087   1.016  0.2403  0.1344 -0.1011
    1WF      WF68966  24.041  25.082   1.545  0.1553 -0.0810 -0.0540
    1WF      WF68967  27.448  16.084   8.696 -0.0676  0.1008 -0.2170
    1WF      WF68968  16.384  14.770   8.512 -0.0485 -0.4577  0.0157
    1WF      WF68969  10.470   0.211   1.401  0.0264  0.4919  0.1012
    1WF      WF68970  20.230  29.169   0.548 -0.0604 -0.0556 -0.2110
    1WF      WF68971   6.819   7.915   3.120 -0.1651 -0.0663  0.0552
    1WF      WF68972  23.528  29.379   0.437 -0.3342  0.1726 -0.1180
    1WF      WF68973  18.911  26.285   8.450 -0.0080  0.0292 -0.0070
    1WF      WF68974   4.582   1.127   1.741  0.1161  0.0037  0.1715
    1WF      WF68975  20.061  29.099   1.758  0.2788  0.3077  0.0773
    1WF      WF68976  23.024   8.176   1.748  0.0238  0.0569 -0.1074
    1WF      WF68977  24.187   2.181   8.788 -0.1023  0.1163 -0.1082
    1WF      WF68978  17.116   0.412   1.252  0.0635 -0.2064  0.3937
    1WF      WF68979   3.219  21.521   0.847 -0.2186  0.2161  0.1230
    1WF      WF68980   9.702  10.650   0.581 -0.3260 -0.1289  0.0373
    1WF      WF68981  15.160  23.080   8.003  0.3454 -0.1447  0.0992
    1WF      WF68982  13.825   1.298   8.950  0.0664  0.0544  0.0664
    1WF      WF68983  16.083  15.700   0.782 -0.5581  0.2962 -0.0415
    1WF      WF68984   3.698   7.992   8.503 -0.2338  0.0228  0.0360
    1WF      WF68985  29.423  19.240   8.552 -0.0113  0.1143  0.2079
    1WF      WF68986  22.485   7.532   8.385 -0.1145  0.1431 -0.0976
    1WF      WF68987  15.145  18.688   8.373 -0.1387 -0.4049 -0.1277
    1WF      WF68988  10.317  22.991   8.363 -0.1232 -0.0217  0.3105
    1WF      WF68989  18.234  27.480   8.238 -0.1183 -0.0350  0.0048
    1WF      WF68990  19.661  13.269   9.121 -0.0089 -0.0987  0.1892
    1WF      WF68991   0.171  16.760   9.164 -0.1324 -0.0310 -0.0106
    1WF      WF68992  15.111  28.726   0.618 -0.1391  0.2714  0.2106
    1WF      WF68993  25.537  28.830   7.408  0.2392 -0.1525  0.0868
    1WF      WF68994  11.145  29.440   7.283  0.1322  0.2609  0.0018
    1WF      WF68995  17.801  14.620   6.774 -0.1319  0.0815 -0.1578
    1WF      WF68996  22.379   8.683   8.128 -0.2503 -0.1422 -0.0420
    1WF      WF68997  18.234   2.128   2.192 -0.2934 -0.1603 -0.2793
    1WF      WF68998  22.388  20.981   0.015 -0.3055 -0.1206  0.0004
    1WF      WF68999   3.309  26.880   8.210  0.3890  0.1962  0.2785
    1WF      WF69000  18.375  22.543   8.519 -0.0381 -0.5691  0.1878
    1WF      WF69001   6.465  12.253   8.601  0.1279  0.1989 -0.2473
    1WF      WF69002  14.329  21.105   9.270  0.0828 -0.1832  0.1550
    1WF      WF69003  16.918   1.628   1.715 -0.0906 -0.1888 -0.0109
    1WF      WF69004  20.762   6.160   0.733 -0.1370 -0.1918 -0.0902
    1WF      WF69005  25.187  22.689   2.758 -0.1978  0.0228  0.0887
    1WF      WF69006  22.956  13.194   7.327  0.1340 -0.2481 -0.0978
    1WF      WF69007  18.577   0.088   8.852 -0.0615  0.2204  0.1122
    1WF      WF69008  13.037   0.302   9.303 -0.2829 -0.2575 -0.1805
    1WF      WF69009  10.641  12.062   1.206  0.0979 -0.0947  0.1297
    1WF      WF69010  13.795   5.943   8.843 -0.3380  0.0976 -0.0445
    1WF      WF69011  27.702  17.145   8.788 -0.0644 -0.1147  0.0116
    1WF      WF69012   7.281   3.398   9.347  0.1281  0.1587  0.1148
    1WF      WF69013   3.025  22.676   7.967 -0.0895 -0.0548 -0.2008
    1WF      WF69014  28.778  18.379   8.882  0.1936  0.1840 -0.2564
    1WF      WF69015  20.552   1.828   9.061  0.1595  0.4750 -0.1653
    1WF      WF69016  17.470  10.840   0.986 -0.1406  0.1790 -0.0005
    1WF      WF69017   8.028   5.602   9.370  0.0630 -0.2199  0.3522
    1WF      WF69018   6.125  11.296   0.328 -0.1447 -0.1850  0.0713
    1WF      WF69019  29.107  27.452   2.880 -0.0393 -0.0485 -0.2063
    1WF      WF69020  29.600  19.542   8.175  0.1438 -0.3905 -0.0721
    1WF      WF69021   0.129   4.745   8.242  0.2454  0.2485 -0.3663
    1WF      WF69022  24.941   9.652   0.892  0.0639  0.0266  0.1414
    1WF      WF69023  20.648  20.934   0.270  0.0270  0.0006 -0.1311
    1WF      WF69024   3.961  13.638   1.373 -0.3141 -0.1738  0.0020
    1WF      WF69025   8.420   5.137   8.654 -0.1528  0.0004  0.1152
    1WF      WF69026  23.918  20.965   0.213  0.2950  0.0902 -0.1295
    1WF      WF69027  21.146  25.299   7.981  0.1714 -0.1483 -0.2204
    1WF      WF69028   4.957   5.699   2.461 -0.1654  0.0407 -0.1385
    1WF      WF69029   7.764  28.054   7.243 -0.1962  0.2048 -0.0194
    1WF      WF69030  24.229  19.612   0.997 -0.5357 -0.1618  0.1878
    1WF      WF69031   3.189   2.796   3.276 -0.1626  0.4325 -0.0716
    1WF      WF69032   7.708  16.612   0.794 -0.3807  0.2428 -0.1641
    1WF      WF69033   9.790  18.018   1.328  0.0074  0.0141  0.0354
    1WF      WF69034  12.379   5.217   1.477 -0.0307  0.1961  0.0230
    1WF      WF69035  30.066  21.303   8.763 -0.1929  0.0320 -0.2992
    1WF      WF69036  27.593   6.798   0.363 -0.3644  0.0219  0.1847
    1WF      WF69037  21.478  22.355   8.517  0.0623  0.0871  0.0900
    1WF      WF69038   4.370  21.044   8.810  0.0927 -0.1304  0.3139
    1WF      WF69039  24.289  13.522   6.696 -0.2688 -0.1146  0.1199
    1WF      WF69040  21.096   3.461   8.456 -0.1677  0.2872  0.0102
    1WF      WF69041   7.440  22.738   8.283  0.2095 -0.0359  0.1883
    1WF      WF69042   9.514  19.087   7.578  0.1674 -0.3299  0.2256
    1WF      WF69043  17.896  19.899   1.463 -0.2093  0.1156  0.1338
    1WF      WF69044  22.226  23.415   6.511  0.1048  0.3083 -0.2550
    1WF      WF69045   8.329   3.361   1.715 -0.2375 -0.0085  0.2892
    1WF      WF69046  26.730  21.535   6.200 -0.0845 -0.1933  0.2080
    1WF      WF69047   3.544   3.306   9.311 -0.1019 -0.0285  0.2989
    1WF      WF69048  14.668   6.164   2.613  0.1996  0.2380 -0.0542
    1WF      WF69049  27.722  24.249   8.140  0.5742  0.1689  0.0390
    1WF      WF69050  14.716  15.585   1.070 -0.1783 -0.0973 -0.0374
    1WF      WF69051  13.684  24.642   1.350  0.0095 -0.0836  0.2490
    1WF      WF69052   3.604   5.827   0.049 -0.2034  0.0657 -0.0231
    1WF      WF69053  11.175  23.600   0.071 -0.4168 -0.0724 -0.0970
    1WF      WF69054   5.013  10.056   9.273 -0.0577 -0.0175 -0.2154
    1WF      WF69055  16.545  16.458   2.444 -0.0796 -0.2756  0.1606
    1WF      WF69056   3.281   8.094   8.714  0.0548  0.2165  0.3634
    1WF      WF69057  19.621   6.980   8.082 -0.0791  0.0775  0.1373
    1WF      WF69058  14.779   6.870   2.045  0.1949  0.0799  0.0920
    1WF      WF69059  22.304  26.134   1.627 -0.3559 -0.1817  0.0511
    1WF      WF69060  22.976  28.551   8.055  0.0254  0.0829  0.0793
    1WF      WF69061   3.216  18.284   0.982  0.0579 -0.2385  0.0868
    1WF      WF69062   8.983  11.974   2.287  0.0428 -0.2398  0.1373
    1WF      WF69063  15.262  27.024   8.417  0.2841  0.0032 -0.1348
    1WF      WF69064  27.712   6.791   9.286  0.0059  0.3409 -0.0708
    1WF      WF69065  20.094   2.183   0.089  0.0895 -0.2244  0.3372
    1WF      WF69066   6.266  19.344   1.056 -0.2763  0.0651  0.0387
    1WF      WF69067   9.992  25.669   1.243  0.3523  0.1116 -0.3032
    1WF      WF69068   5.463  28.817   1.041  0.3196  0.3680 -0.0994
    1WF      WF69069  10.050  12.208   3.139 -0.0828  0.1385  0.0568
    1WF      WF69070   2.200   7.105   0.422 -0.0455  0.1709  0.0473
    1WF      WF69071   8.899  11.496   1.942  0.2721 -0.2423 -0.0463
    1WF      WF69072  23.148  11.081   8.611  0.1578 -0.0103  0.1371
    1WF      WF69073  17.662   8.511   6.462 -0.1137  0.2608 -0.1903
    1WF      WF69074   6.127   0.895   8.236 -0.1172  0.0668  0.0421
    1WF      WF69075  26.285  20.530   8.139  0.0236 -0.1409  0.0535
    1WF      WF69076   4.064   1.763   1.642 -0.3380 -0.0576 -0.0343
    1WF      WF69077  24.021  28.585   3.139 -0.0702  0.0761 -0.0998
    1WF      WF69078  22.568  20.825   8.938  0.2559  0.0150  0.6827
    1WF      WF69079  19.001  15.826   8.747 -0.1177 -0.1420 -0.1317
    1WF      WF69080  12.768  15.150   0.906 -0.0417 -0.0849  0.2955
    1WF      WF69081  12.539   9.537   0.234 -0.0032  0.0006 -0.3730
    1WF      WF69082  28.677   9.830   2.088  0.0731 -0.0024  0.2353
    1WF      WF69083  29.200   7.613   1.564  0.1538 -0.0004 -0.0770
    1WF      WF69084  21.141  27.263   8.353 -0.1890  0.3447  0.0269
    1WF      WF69085   1.246  27.374   8.331 -0.0314 -0.2766  0.2175
    1WF      WF69086   7.347  22.612   8.780 -0.0917 -0.0983 -0.0400
    1WF      WF69087  23.524   8.774   0.551 -0.1311 -0.0845  0.0102
    1WF      WF69088  11.576  12.504   7.412  0.0640 -0.3796 -0.2610
    1WF      WF69089   7.720  26.170   2.825  0.0277  0.1855 -0.1381
    1WF      WF69090   1.154  12.522   5.320  0.3812  0.0174 -0.3854
    1WF      WF69091  22.803  25.920   1.453 -0.1381 -0.0595 -0.0385
    1WF      WF69092  11.262   1.157   9.317 -0.3359 -0.0730 -0.5025
    1WF      WF69093  11.351   3.592   2.294 -0.0007  0.2259 -0.1165
    1WF      WF69094   4.905   5.423   8.749  0.0006  0.2777  0.3374
    1WF      WF69095   5.810  20.753   2.062 -0.1193 -0.2582  0.3392
    1WF      WF69096  22.701   0.811   7.667 -0.0811 -0.0091  0.1636
    1WF      WF69097  28.370  25.823   1.501 -0.0977  0.4234 -0.0058
    1WF      WF69098   8.448  16.753   1.720 -0.1942 -0.0196  0.1795
    1WF      WF69099  12.034  14.448   0.455 -0.0082 -0.0657  0.2887
    1WF      WF69100   4.054  22.100   9.184  0.2366 -0.4373  0.1262
    1WF      WF69101  27.822  23.919   8.545  0.0604  0.3310  0.2997
    1WF      WF69102   1.023  19.266   7.347 -0.0596  0.1257 -0.1603
    1WF      WF69103  17.815  11.889   0.042  0.0924 -0.0605 -0.1505
    1WF      WF69104   3.549  19.489   8.746  0.0543  0.1889 -0.3219
    1WF      WF69105  14.628   4.833   2.041 -0.0165 -0.1238 -0.3843
    1WF      WF69106  18.825   4.454   8.045  0.4255  0.1366 -0.1024
    1WF      WF69107  29.252  25.570   6.707 -0.0153  0.3509  0.1618
    1WF      WF69108   5.277  18.275   7.538 -0.1675  0.3006  0.2122
    1WF      WF69109  15.055  27.672   1.644 -0.1801 -0.0024  0.0266
    1WF      WF69110  19.618  17.214   0.514  0.1544  0.2147 -0.2815
    1WF      WF69111  26.287  17.563   0.240 -0.1619 -0.1113 -0.0940
    1WF      WF69112  22.392  10.690   8.474  0.2749  0.2328 -0.0131
    1WF      WF69113   8.329  27.609   1.895 -0.2428 -0.1179 -0.1801
    1WF      WF69114  24.076   4.137   1.417 -0.2003  0.3084 -0.2998
    1WF      WF69115   4.288  15.599   0.215 -0.3427  0.1400 -0.0040
    1WF      WF69116   0.482   5.346   9.180  0.0390  0.1163  0.0204
    1WF      WF69117   1.540  13.129   7.608 -0.2221  0.3141 -0.0159
    1WF      WF69118  27.921  26.266   2.716  0.1800  0.0701  0.0791
    1WF      WF69119  15.268  28.855   9.389  0.3604 -0.0987 -0.1960
    1WF      WF69120  27.573  14.640   6.922  0.0960 -0.3979  0.0354
    1WF      WF69121  11.893  29.750   8.326 -0.1052 -0.0865 -0.0308
    1WF      WF69122   3.596  27.617   9.323 -0.3142 -0.0452  0.0449
    1WF      WF69123  14.763   6.782   8.100  0.1447  0.0300  0.0452
    1WF      WF69124   2.761  20.278   0.777  0.5282  0.2863  0.3398
    1WF      WF69125  20.313   8.288   8.214  0.0983 -0.2404  0.0072
    1WF      WF69126   5.815  29.607   8.045  0.1032 -0.0771  0.0700
    1WF      WF69127   5.189  26.457   8.846  0.2365  0.2212 -0.0794
    1WF      WF69128   0.026  24.652   0.233 -0.2108  0.2563  0.2247
    1WF      WF69129  23.547  10.652   0.741  0.1698 -0.2791  0.2225
    1WF      WF69130  25.652  15.313   7.946 -0.2092  0.0622  0.1373
    1WF      WF69131   4.412   2.168   1.361 -0.0659 -0.0628  0.3237
    1WF      WF69132  20.186  27.254   6.754  0.1339  0.0458 -0.2321
    1WF      WF69133  10.669  11.832   0.759 -0.0225  0.0494  0.0329
    1WF      WF69134   2.379  19.722   8.759  0.0561 -0.1125 -0.1055
    1WF      WF69135  20.650  11.925   1.624 -0.0660 -0.0537 -0.4080
    1WF      WF69136  18.538  12.546   2.232  0.0143  0.3086  0.0499
    1WF      WF69137  23.544   1.253   7.922  0.0427 -0.1084 -0.3153
    1WF      WF69138   4.132  23.968   0.690  0.1657  0.2588 -0.1308
    1WF      WF69139  24.083   9.213   7.997  0.1020 -0.0937 -0.4584
    1WF      WF69140  25.309  22.496   8.006 -0.1170  0.1545 -0.0839
    1WF      WF69141   3.945  27.831   0.264  0.2200 -0.3361  0.1059
    1WF      WF69142  16.922  14.005   9.355  0.2544 -0.2289 -0.1020
    1WF      WF69143  27.263   5.311   8.871  0.0518 -0.0994 -0.1714
    1WF      WF69144  12.854   2.158   2.635 -0.1458  0.1810 -0.2170
    1WF      WF69145  25.617   7.763   5.996 -0.0180 -0.0523 -0.1156
    1WF      WF69146  27.819   4.101   0.572 -0.0043  0.0077 -0.3972
    1WF      WF69147   0.922  23.369   6.877  0.1665 -0.1805 -0.1716
    1WF      WF69148  11.195  27.775   8.383  0.1409 -0.1149 -0.1742
    1WF      WF69149  19.759   9.006   0.686 -0.0279  0.0137 -0.1221
    1WF      WF69150   3.249  11.826   1.986 -0.1221 -0.0032 -0.0100
    1WF      WF69151  17.878  17.135   1.002  0.0070 -0.0810  0.3152
    1WF      WF69152   8.488  23.775   9.340 -0.0896  0.1886 -0.0129
    1WF      WF69153  29.345  26.071   6.587 -0.1767 -0.0030  0.4255
    1WF      WF69154   3.767   3.408   7.561  0.2270 -0.0032 -0.1888
    1WF      WF69155   2.010  13.335   1.849  0.0024 -0.0417 -0.1570
    1WF      WF69156  25.394  23.270   6.057 -0.1101 -0.0525  0.0813
    1WF      WF69157  20.981  20.528   8.732 -0.1305  0.1248  0.1738
    1WF      WF69158   1.688  27.554   7.576 -0.3146 -0.1409 -0.1924
    1WF      WF69159  15.896   2.420   9.343 -0.4466 -0.0924  0.3736
    1WF      WF69160   4.759  28.261   8.376  0.0605  0.4098  0.0134
    1WF      WF69161  16.236   5.430   1.942 -0.2727  0.0215 -0.2092
    1WF      WF69162   2.954  23.749   7.303 -0.2970 -0.2109 -0.0317
    1WF      WF69163  24.210   3.756   1.188  0.1716 -0.1116 -0.0433
    1WF      WF69164  17.504  25.888   0.101  0.0021  0.0666  0.0789
    1WF      WF69165   0.852  20.622   0.553 -0.4633 -0.0415  0.1784
    1WF      WF69166   2.466  12.111   7.118 -0.2350 -0.1474 -0.1559
    1WF      WF69167   1.938   0.009   0.044  0.0656  0.1602 -0.1473
    1WF      WF69168  12.708  22.882   0.261  0.3857 -0.1167  0.1068
    1WF      WF69169   3.043  19.182   7.371  0.1960  0.1696  0.1426
    1WF      WF69170  10.879  23.954   1.435 -0.2340 -0.3860 -0.4444
    1WF      WF69171   5.885   7.280   0.164  0.2807  0.2304 -0.2654
    1WF      WF69172  10.020   1.937   2.946 -0.1478 -0.1332 -0.2317
    1WF      WF69173  24.416  24.927   1.841  0.2076  0.0238 -0.0349
    1WF      WF69174  20.783   7.565   1.872  0.1477  0.0469  0.0943
    1WF      WF69175   3.370   8.099   1.992 -0.0881  0.0043  0.1651
    1WF      WF69176  21.448  20.430   0.686  0.2216 -0.0778 -0.0975
    1WF      WF69177  22.347  11.514   2.398  0.1552 -0.1192 -0.0122
    1WF      WF69178   6.262   9.184   0.668 -0.2502 -0.1711 -0.1465
    1WF      WF69179  19.853  30.095   0.447 -0.1550 -0.1405 -0.0541
    1WF      WF69180   4.994  18.552   7.171  0.2436  0.2934 -0.2908
    1WF      WF69181  13.338  11.367   1.084  0.0330  0.3300 -0.2603
    1WF      WF69182  28.693  10.462   6.889  0.0611  0.2853 -0.0687
    1WF      WF69183   9.779  15.945   8.925 -0.1982 -0.0268  0.0531
    1WF      WF69184  26.268  23.802   7.851 -0.0995 -0.4566  0.1492
    1WF      WF69185   0.507  14.318   6.653  0.1467  0.0940 -0.0624
    1WF      WF69186  26.217  21.224   9.063  0.5253  0.2495  0.0363
    1WF      WF69187  17.247  22.559   8.092  0.0206  0.1976  0.1527
    1WF      WF69188  24.842   9.787   7.314 -0.2763 -0.0231 -0.0876
    1WF      WF69189   5.552  17.585   8.649 -0.0094  0.1964  0.2576
    1WF      WF69190  14.086   1.918   8.024  0.0333  0.1055  0.0152
    1WF      WF69191  19.973  28.497   3.174 -0.0108  0.1945  0.1480
    1WF      WF69192   8.669   9.389   2.297  0.3156  0.1564 -0.0909
    1WF      WF69193   7.251  16.464   0.616  0.0658 -0.1102 -0.1551
    1WF      WF69194  18.282  21.662   0.743 -0.4948 -0.2626 -0.3807
    1WF      WF69195   2.302  17.464   1.000  0.1127 -0.2631  0.1485
    1WF      WF69196  22.961  29.122   1.637  0.1160 -0.3293 -0.2772
    1WF      WF69197  26.744  26.562   1.037  0.1797  0.1984  0.1606
    1WF      WF69198  11.377  15.451   0.403 -0.0697 -0.2270 -0.1780
    1WF      WF69199  25.872  15.221   8.903 -0.0863  0.0342 -0.2898
    1WF      WF69200   0.187  14.854   0.399 -0.2197 -0.0322  0.1940
    1WF      WF69201  28.202  24.985   0.963  0.0785 -0.0186  0.2221
    1WF      WF69202   4.275  21.646   6.516  0.1134 -0.0417 -0.0333
    1WF      WF69203  25.129  22.690   8.838 -0.0251  0.0252 -0.0512
    1WF      WF69204  15.799   3.265   8.279 -0.1133 -0.0599 -0.0085
    1WF      WF69205  21.518  27.344   8.660  0.1516 -0.0573  0.1307
    1WF      WF69206  11.165   4.163   8.320  0.3006 -0.1279  0.0053
    1WF      WF69207  29.448  27.255   8.541 -0.2420 -0.0402  0.2155
    1WF      WF69208  28.800  25.284   0.485  0.0377 -0.2609  0.0660
    1WF      WF69209   9.025  28.379   2.282 -0.0480 -0.0356 -0.2605
    1WF      WF69210  18.328   1.922   8.577  0.2464  0.2697  0.1347
    1WF      WF69211  21.684  22.725   2.515 -0.2491 -0.0931  0.1873
    1WF      WF69212  16.229   0.140   9.279 -0.1186  0.0913 -0.1260
    1WF      WF69213   0.117   9.124   5.534  0.0164  0.1460  0.0466
    1WF      WF69214   4.631   2.130   9.279 -0.0813 -0.0425 -0.0074
    1WF      WF69215  17.980  11.374   2.505  0.2389 -0.2021  0.2305
    1WF      WF69216  27.667   9.006   5.913  0.6011 -0.1533 -0.0236
    1WF      WF69217  20.401  10.083   1.642 -0.2329  0.0022  0.0861
    1WF      WF69218  18.515   1.901   0.020  0.2440  0.0063  0.1385
    1WF      WF69219  18.209  12.311   0.050  0.1523 -0.0610  0.1905
    1WF      WF69220  22.389  20.019   0.076 -0.1298  0.1279 -0.3663
    1WF      WF69221  17.728   0.074   0.257  0.0819 -0.0318  0.1880
    1WF      WF69222   1.993   6.798   2.136 -0.1338 -0.0732  0.1055
    1WF      WF69223  27.602  12.502   7.012 -0.1561 -0.2797  0.2117
    1WF      WF69224  22.436   3.225   9.185 -0.1688  0.1599  0.1436
    1WF      WF69225  25.836   9.664   7.995 -0.0673  0.0300  0.1654
    1WF      WF69226  21.627  26.604   1.047 -0.2514 -0.0673 -0.0008
    1WF      WF69227  22.914  19.432   0.581  0.0470  0.2129  0.1612
    1WF      WF69228   7.411   9.744   0.123 -0.1416  0.3260 -0.1591
    1WF      WF69229  23.007  28.565   2.310  0.0090 -0.2377 -0.0766
    1WF      WF69230   9.074  11.033   2.023  0.2142 -0.2199  0.4106
    1WF      WF69231  14.412  18.701   0.823 -0.1320 -0.2752  0.3450
    1WF      WF69232  13.455  16.719   0.112  0.0848 -0.2817  0.2304
    1WF      WF69233  14.263  10.406   9.377  0.2805  0.1629 -0.0628
    1WF      WF69234  25.038  12.906   6.743 -0.0924 -0.0317 -0.1280
    1WF      WF69235  10.719  28.859   0.839 -0.0919  0.1241 -0.3500
    1WF      WF69236  29.327   4.739   2.309  0.0099  0.0958  0.1375
    1WF      WF69237  24.671  12.196   8.649 -0.1318 -0.1472  0.0100
    1WF      WF69238  10.329  17.595   0.102 -0.3353  0.1111  0.1358
    1WF      WF69239  13.165   0.839   7.583  0.1457  0.0673  0.0349
    1WF      WF69240  29.417   0.605   9.040  0.2263  0.3076  0.3554
    1WF      WF69241  18.229   5.865   2.421 -0.1133 -0.0457  0.1989
    1WF      WF69242  13.586  27.802   1.438 -0.1488 -0.3637  0.1904
    1WF      WF69243  10.195  24.790   0.081 -0.1754  0.0735 -0.0909
    1WF      WF69244  25.119  21.988   7.920 -0.0301  0.1729  0.0233
    1WF      WF69245  19.505  23.729   8.296 -0.0733 -0.0284 -0.0107
    1WF      WF69246  13.944  16.673   8.189 -0.0665 -0.1048 -0.1312
    1WF      WF69247   1.345  19.443   7.694  0.1773 -0.0017 -0.2736
    1WF      WF69248   4.939   0.913   2.058 -0.0475  0.1428 -0.0519
    1WF      WF69249  27.152  13.850   8.739  0.1563  0.1500 -0.0771
    1WF      WF69250  23.824  24.765   1.136  0.0742 -0.1202  0.1868
    1WF      WF69251   5.253  18.344   0.177 -0.0265  0.4733 -0.0134
    1WF      WF69252  28.198  15.182   6.375 -0.2355 -0.0744  0.0827
    1WF      WF69253  19.919   4.647   1.563 -0.1483 -0.0892  0.3781
    1WF      WF69254   4.764   5.037   8.446 -0.1610 -0.0425  0.0357
    1WF      WF69255  15.311  18.707   0.132  0.0774 -0.0171 -0.1255
    1WF      WF69256  24.383  11.204   8.627 -0.0995 -0.1379  0.0960
    1WF      WF69257  15.669   2.849   9.151 -0.0990  0.1033 -0.0005
    1WF      WF69258   0.953  29.030   1.239 -0.2695  0.1115  0.1192
    1WF      WF69259  14.585   6.558   1.668  0.0164  0.0052 -0.1214
    1WF      WF69260  13.001   2.282   1.284  0.0339  0.1257  0.2366
    1WF      WF69261   7.576  18.555   1.738  0.1444  0.1514 -0.2280
    1WF      WF69262  15.782   8.866   8.844  0.3811 -0.1658  0.0684
    1WF      WF69263  23.469  25.763   6.517 -0.0067 -0.0931 -0.2111
    1WF      WF69264   5.338  21.365   5.728 -0.1671 -0.1778  0.3254
    1WF      WF69265  10.283   6.394   8.622  0.3908  0.2110 -0.1860
    1WF      WF69266  18.761   1.053   8.023 -0.0241 -0.0186  0.2860
    1WF      WF69267   0.000   1.755   9.074  0.0309  0.3098  0.1713
    1WF      WF69268  20.406   8.551   3.095 -0.2016 -0.1232 -0.0216
    1WF      WF69269  21.416  23.904   8.177 -0.3914 -0.1943  0.2957
    1WF      WF69270  12.914  11.141   0.044  0.0284 -0.2605  0.0389
    1WF      WF69271   6.223  29.774   7.169  0.0908  0.1978 -0.2350
    1WF      WF69272  21.193   9.557   9.246 -0.0306 -0.0491 -0.0640
    1WF      WF69273  24.011  16.091   8.859  0.0800  0.1360  0.2277
    1WF      WF69274  14.325   4.903   1.670  0.1311  0.1341  0.0675
    1WF      WF69275  27.698  15.676   8.612  0.1528 -0.1664  0.0405
    1WF      WF69276  29.522  10.894   8.029 -0.2100  0.1497  0.1649
    1WF      WF69277  27.964  25.588   8.908  0.1564 -0.1425  0.0633
    1WF      WF69278   5.482  28.472   0.625  0.0408 -0.1954  0.1112
    1WF      WF69279  16.394  25.138   0.898 -0.0698 -0.1735 -0.4222
    1WF      WF69280   8.854  10.210   9.345 -0.0353 -0.2158  0.0006
    1WF      WF69281  25.543  18.845   0.651  0.1369  0.1436  0.2241
    1WF      WF69282  28.338   3.386   0.322  0.0610 -0.1850  0.0894
    1WF      WF69283  27.262   6.921   1.168  0.1162  0.0378 -0.0290
    1WF      WF69284  20.454  22.262   7.067 -0.0469  0.2409  0.0824
    1WF      WF69285  24.092  11.918   2.563 -0.3457  0.1053 -0.1516
    1WF      WF69286   3.982  14.072   1.146 -0.2287  0.0500  0.1863
    1WF      WF69287  14.607  30.049   8.538 -0.1933  0.1848  0.1063
    1WF      WF69288  24.890   7.383   0.720 -0.0561  0.2614 -0.0789
    1WF      WF69289  19.620   0.387   0.363 -0.1123 -0.1609 -0.1647
    1WF      WF69290  20.140  26.900   6.387 -0.0782 -0.0049  0.0449
    1WF      WF69291   0.312  16.330   1.679 -0.1069  0.1454  0.1342
    1WF      WF69292  10.621  12.229   1.708 -0.2031  0.2669  0.0189
    1WF      WF69293  18.620  24.060   6.782 -0.1506 -0.0945 -0.1917
    1WF      WF69294   6.763  12.171   2.335  0.1458 -0.1046 -0.1060
    1WF      WF69295  20.158  12.228   6.496  0.2011  0.1122  0.0499
    1WF      WF69296   5.210  19.678   6.353 -0.0161  0.0615 -0.2204
    1WF      WF69297   6.338   3.476   8.337  0.2489  0.2637 -0.1672
    1WF      WF69298  23.358   3.004   1.824 -0.1357  0.1614  0.1212
    1WF      WF69299  24.225   2.442   8.353  0.1124  0.3087  0.0314
    1WF      WF69300  19.554   5.220   8.827  0.0429  0.0140 -0.0904
    1WF      WF69301  30.021   1.317   7.606  0.4598  0.0289  0.2342
    1WF      WF69302  25.489  11.365   7.324  0.1937  0.1395 -0.0693
    1WF      WF69303  16.584  22.220   2.087 -0.0322  0.3218  0.2296
    1WF      WF69304   3.696  24.099   7.890  0.2116 -0.1384 -0.0790
    1WF      WF69305  26.468   8.387   1.582  0.0696 -0.0309  0.2314
    1WF      WF69306  26.780  27.118   0.955 -0.1640 -0.0715 -0.1155
    1WF      WF69307  29.102  10.674   7.796 -0.0332 -0.0454  0.1434
    1WF      WF69308   8.295  29.493   0.667  0.1357  0.2257 -0.1972
    1WF      WF69309  15.848  23.726   1.154 -0.2118 -0.0601 -0.0016
    1WF      WF69310   4.252  11.838   2.335 -0.3195 -0.0263 -0.0330
    1WF      WF69311  15.761   5.699   1.331 -0.1923  0.1432  0.0808
    1WF      WF69312  28.173  10.642   9.305 -0.4344 -0.0646 -0.1195
    1WF      WF69313   0.038  29.080   8.700  0.0043 -0.3804  0.1889
    1WF      WF69314  18.549  26.869   1.452  0.2293  0.0818  0.0722
    1WF      WF69315  23.317  13.198   7.648 -0.3263 -0.0002 -0.0132
    1WF      WF69316  29.769  23.939   8.975  0.2121 -0.2144 -0.2299
    1WF      WF69317  17.538   6.871   1.687  0.2834  0.0735 -0.1873
    1WF      WF69318   6.976  22.440   0.382  0.0679  0.1758  0.0743
    1WF      WF69319  17.951   7.584   8.224 -0.0515 -0.1263  0.0494
    1WF      WF69320  21.198   6.425   0.869 -0.1097  0.0457  0.0572
    1WF      WF69321   1.438  16.143   8.653  0.1889  0.2312  0.0005
    1WF      WF69322  24.823  21.033   1.371  0.1215 -0.5068  0.0099
    1WF      WF69323  10.033   7.390   2.539  0.1327 -0.0326  0.0777
    1WF      WF69324   9.202   3.825   8.051  0.0489 -0.2768  0.0999
    1WF      WF69325  18.895   7.463   9.110  0.3268 -0.0556  0.1038
    1WF      WF69326  12.436   3.652   1.989  0.0863  0.1865 -0.2519
    1WF      WF69327   0.556  18.207   8.565 -0.0941 -0.1934  0.2804
    1WF      WF69328  20.693   3.255   8.217 -0.0369 -0.0302  0.2166
    1WF      WF69329  27.509  22.517   8.939  0.1004  0.1020 -0.0169
    1WF      WF69330  15.753  26.440   2.548  0.4492 -0.1401 -0.1395
    1WF      WF69331  27.331   5.384   1.158 -0.0755  0.0361 -0.0916
    1WF      WF69332  28.932   5.607   3.037  0.0893  0.0301 -0.2263
    1WF      WF69333  10.737  26.512   5.890 -0.1240  0.0733 -0.0691
    1WF      WF69334  13.022  19.623   8.046 -0.1136 -0.0157 -0.0685
    1WF      WF69335  21.965  11.617   0.865 -0.2696 -0.1357  0.4190
    1WF      WF69336  19.151  10.051   9.311  0.1983 -0.1093 -0.1339
    1WF      WF69337  27.218  29.690   0.473 -0.0381  0.3197  0.0768
    1WF      WF69338   8.179  23.342   9.228  0.2379  0.3637  0.3264
    1WF      WF69339   4.071   3.670   7.899 -0.2118  0.1566 -0.3418
    1WF      WF69340  21.050  25.562   8.388 -0.1110 -0.0264  0.2217
    1WF      WF69341  19.730  18.128   0.843  0.2190  0.2622 -0.2973
    1WF      WF69342  10.889  21.013   8.217 -0.0058 -0.0875 -0.2516
    1WF      WF69343   9.624  17.723   8.548  0.0984  0.1728 -0.1271
    1WF      WF69344  18.046   2.283   8.795  0.0462  0.0358  0.0451
    1WF      WF69345  17.628  17.656   7.728  0.1052 -0.1050 -0.0294
    1WF      WF69346  17.066  29.707   9.314 -0.0867  0.2369  0.1246
    1WF      WF69347  28.981  13.103   0.804 -0.0339  0.3606 -0.0803
    1WF      WF69348  28.272  13.124   6.800 -0.2673 -0.1493  0.0784
    1WF      WF69349  14.284  16.604   8.946 -0.1484 -0.1446 -0.1389
    1WF      WF69350   3.114  24.807   0.933 -0.2028 -0.0952 -0.2135
    1WF      WF69351   6.140   5.780   0.485 -0.2012 -0.1111 -0.1708
    1WF      WF69352  28.576  21.644   8.107  0.1227  0.0117 -0.2396
    1WF      WF69353  13.976   9.708   0.944 -0.1594  0.2292 -0.0720
    1WF      WF69354   6.149  10.896   0.609  0.2079 -0.2435  0.0561
    1WF      WF69355  28.287  14.372   0.335  0.0199  0.0218 -0.1402
    1WF      WF69356  12.512   2.330   1.791 -0.3247  0.2149 -0.0519
    1WF      WF69357  28.197  23.616   8.614  0.1278 -0.3434 -0.3607
    1WF      WF69358  16.512  18.085   0.952 -0.3112 -0.3368 -0.1809
    1WF      WF69359  22.656  26.373   8.602  0.1124 -0.0562 -0.0397
    1WF      WF69360   0.386   6.850   1.100  0.2851  0.0256 -0.0015
    1WF      WF69361  22.624  26.477   7.620  0.2284  0.0149 -0.1214
    1WF      WF69362   8.247   8.038   1.821  0.1044  0.0009  0.3070
    1WF      WF69363   8.179   3.819   1.414  0.0103  0.0147  0.1132
    1WF      WF69364  20.927   3.266   0.965  0.0698 -0.2044  0.0059
    1WF      WF69365  12.308   2.332   9.257 -0.1570 -0.1892  0.0036
    1WF      WF69366   2.998   7.627   8.990  0.0197  0.1264 -0.2443
    1WF      WF69367  25.970  28.151   1.800 -0.4528 -0.0093 -0.0571
    1WF      WF69368  17.919  22.756   6.700 -0.0439 -0.4029 -0.0403
    1WF      WF69369  23.651  28.564   9.065  0.2270 -0.2391  0.0017
    1WF      WF69370  28.542   0.831   8.668 -0.4909  0.1675 -0.0425
    1WF      WF69371  17.452   1.749   4.247 -0.0485  0.0618 -0.5241
    1WF      WF69372  27.274  26.003   2.770  0.1137  0.0753  0.1073
    1WF      WF69373  18.699  13.349   1.263  0.3201 -0.0769 -0.0567
    1WF      WF69374  15.626  14.014   2.755  0.3159  0.2036  0.0878
    1WF      WF69375  20.378  10.035   9.152 -0.1622  0.1225 -0.1490
    1WF      WF69376  10.389  23.045   5.262  0.1264  0.0510 -0.0418
    1WF      WF69377  19.419  26.427   8.593  0.3785 -0.1334  0.0598
    1WF      WF69378   0.796  22.492   7.516  0.1766 -0.1381 -0.1264
    1WF      WF69379  10.400  20.761   8.492  0.0065  0.3269  0.1482
    1WF      WF69380   0.677  29.731   8.208 -0.5163  0.0014  0.4165
    1WF      WF69381  14.318  14.746   8.355 -0.2000 -0.2632 -0.1142
    1WF      WF69382  26.322   2.701   8.112 -0.1851  0.0655  0.1392
    1WF      WF69383   3.072  23.578   0.557  0.0230  0.0347 -0.1762
    1WF      WF69384  22.415  27.221   6.509  0.0176  0.1002  0.1892
    1WF      WF69385  30.112   4.478   7.754  0.0883 -0.0089  0.0890
    1WF      WF69386   9.012  16.696   0.929 -0.0493 -0.1137 -0.2130
    1WF      WF69387  24.962  24.691   7.819  0.0657  0.0079 -0.1509
    1WF      WF69388  21.029  29.739   7.755  0.1373 -0.0111  0.1418
    1WF      WF69389  17.537  19.954   1.854  0.0446 -0.0264 -0.0756
    1WF      WF69390  27.227   3.988   7.949  0.0727  0.1240  0.0529
    1WF      WF69391   7.222  19.475   8.124 -0.1345  0.0213 -0.0423
    1WF      WF69392  24.992   8.214   8.505 -0.1462  0.2685  0.1860
    1WF      WF69393   7.872  13.377   0.203  0.0448 -0.3507 -0.2477
    1WF      WF69394  22.525  29.645   2.418  0.1210  0.1877  0.2232
    1WF      WF69395  29.246   2.587   0.382 -0.2715 -0.1229 -0.0305
    1WF      WF69396   1.444  19.155   6.088 -0.0643  0.2453 -0.2653
    1WF      WF69397   0.669   6.767   0.689 -0.3846 -0.0834  0.0421
    1WF      WF69398   3.536  11.130   9.253 -0.2990 -0.0847  0.0297
    1WF      WF69399  13.102  21.204   7.581 -0.1691  0.0896  0.0907
    1WF      WF69400  26.294  10.950   6.941 -0.1091  0.0642  0.1605
    1WF      WF69401   6.796   3.030   9.339  0.1199 -0.0226 -0.2830
    1WF      WF69402  24.498   3.437   1.019  0.2705 -0.1407 -0.0941
    1WF      WF69403  26.765  25.856   7.261 -0.1122 -0.2684  0.1291
    1WF      WF69404  14.447  17.095   1.332  0.0022 -0.1521 -0.1223
    1WF      WF69405  17.772   6.077   2.545 -0.2983 -0.0414 -0.0500
    1WF      WF69406   1.306  26.241   0.480 -0.0266  0.1396 -0.1579
    1WF      WF69407  29.722  20.702   6.845  0.1456 -0.1540 -0.3672
    1WF      WF69408  21.903  16.836   1.126 -0.1467 -0.0174 -0.0121
    1WF      WF69409  21.380  25.386   3.364 -0.2099 -0.0009 -0.2998
    1WF      WF69410   2.740  25.761   1.656  0.0826 -0.2086  0.2431
    1WF      WF69411   8.793   0.283   3.079 -0.0139 -0.0255  0.2425
    1WF      WF69412  16.972  27.652   8.847 -0.0014  0.1380  0.0164
    1WF      WF69413  29.159  22.451   8.107 -0.1527 -0.2139 -0.0465
    1WF      WF69414   4.910  28.522   0.513  0.0656 -0.1218  0.0618
    1WF      WF69415  15.641  23.908   0.615 -0.1862 -0.0835 -0.0911
    1WF      WF69416  17.633   8.623   8.505 -0.2467  0.0757 -0.0018
    1WF      WF69417  27.796   4.487   7.607 -0.0872 -0.3210  0.3201
    1WF      WF69418  17.463  23.548   0.639 -0.0137  0.0652 -0.0073
    1WF      WF69419  27.813   2.067   1.711 -0.1032  0.2179  0.1081
    1WF      WF69420   1.767  21.623   7.947 -0.1891 -0.3102 -0.2108
    1WF      WF69421   9.658  19.293   8.798 -0.0386  0.2670 -0.2511
    1WF      WF69422  18.132   7.542   2.968  0.0665 -0.0111 -0.1249
    1WF      WF69423  28.903  10.745   7.302 -0.2285  0.1697  0.0930
    1WF      WF69424   1.260  22.715   8.792  0.1971  0.1435 -0.1650
    1WF      WF69425   2.057  14.880   8.562 -0.3271  0.0668  0.3629
    1WF      WF69426  19.580  12.747   7.589 -0.4109 -0.0660  0.2442
    1WF      WF69427  28.567  18.081   8.504  0.0252  0.1401  0.3118
    1WF      WF69428  12.900  29.953   0.029 -0.2117 -0.3452 -0.3271
    1WF      WF69429  29.835  22.731   7.939 -0.0213 -0.2311  0.1178
    1WF      WF69430   5.501  22.428   7.363  0.0490 -0.0096  0.1195
    1WF      WF69431   2.263   4.563   1.064 -0.0940  0.0500 -0.2988
    1WF      WF69432  13.905  24.098   2.085  0.1075 -0.0525 -0.0825
    1WF      WF69433  25.647  16.957   2.285 -0.2709 -0.1322 -0.0086
    1WF      WF69434  14.955  27.236   1.379  0.0389 -0.1452 -0.1170
    1WF      WF69435   1.423   8.254   8.657  0.1276  0.0216  0.0155
    1WF      WF69436  23.882  28.113   9.189 -0.4313 -0.2182 -0.0165
    1WF      WF69437  10.041   6.413   1.722  0.0259  0.2021 -0.1057
    1WF      WF69438   0.629  29.168   0.688 -0.1030  0.1424  0.3457
    1WF      WF69439  23.703  13.046   9.134  0.0082 -0.0264  0.0598
    1WF      WF69440  29.577   7.925   8.190 -0.0469 -0.1250  0.2499
    1WF      WF69441   7.641   3.765   0.014 -0.3068  0.1059 -0.2130
    1WF      WF69442  17.506   1.391   2.708  0.2870 -0.2526 -0.2190
    1WF      WF69443   2.476   6.825   1.991  0.0319 -0.1060 -0.1752
    1WF      WF69444   5.141  19.602   2.205  0.1085  0.0776  0.2282
    1WF      WF69445  16.240  25.984   2.291 -0.1105 -0.1162 -0.0536
    1WF      WF69446   1.155  22.053   0.553  0.4532  0.3135  0.0116
    1WF      WF69447  23.431  12.706   5.931 -0.0052 -0.1139  0.0711
    1WF      WF69448   3.801   2.157   1.294 -0.0392 -0.1505 -0.0175
    1WF      WF69449  22.498  19.115   8.816 -0.0879  0.1450  0.1442
    1WF      WF69450   2.066  26.262   6.024  0.2259  0.5011 -0.0099
    1WF      WF69451  27.673   6.930   2.083  0.0237 -0.0242 -0.0965
    1WF      WF69452  17.813  27.771   8.270 -0.2612  0.0609  0.0813
    1WF      WF69453   8.552  29.978   3.299  0.1263 -0.0875 -0.0805
    1WF      WF69454  19.806   6.532   7.673 -0.1807 -0.3434 -0.3527
    1WF      WF69455  19.905   1.410   0.761  0.3690 -0.2957 -0.2418
    1WF      WF69456  14.352  16.463   8.427  0.0156 -0.0938 -0.0568
    1WF      WF69457  24.534  15.421   7.780 -0.1127  0.1345  0.1745
    1WF      WF69458   7.667  29.165   8.081 -0.2856 -0.2395 -0.1180
    1WF      WF69459   2.667  27.737   0.755  0.5524 -0.3480  0.1991
    1WF      WF69460  28.904  29.337   1.515 -0.0218 -0.0964 -0.1355
    1WF      WF69461  25.927   5.405   0.174 -0.0350 -0.2147  0.2165
    1WF      WF69462  26.066   7.838   1.147  0.1006 -0.3283 -0.1639
    1WF      WF69463  23.884  14.163   6.902 -0.1013 -0.0572 -0.0807
    1WF      WF69464  29.592  19.257   1.670 -0.0602 -0.0038 -0.1156
    1WF      WF69465   3.453  15.492   6.727  0.3175 -0.2643  0.2673
    1WF      WF69466  28.757  29.522   1.949  0.0748 -0.1994  0.2680
    1WF      WF69467   7.212  26.356   8.188  0.0761 -0.4215 -0.0540
    1WF      WF69468  23.050  12.789   8.946 -0.0822  0.1148 -0.1367
    1WF      WF69469  15.077  25.647   8.920  0.2774 -0.0594 -0.0259
    1WF      WF69470  12.378  18.967   8.978  0.4582  0.1321  0.1764
    1WF      WF69471  18.201  28.677   6.647  0.2354 -0.1624 -0.0493
    1WF      WF69472  20.198  29.710   0.524 -0.1895  0.0536 -0.2472
    1WF      WF69473  17.912   1.919   8.066 -0.1582 -0.0983 -0.1532
    1WF      WF69474  19.755  25.173   0.766 -0.1806 -0.0447 -0.3873
    1WF      WF69475  15.342   3.643   8.987  0.0812  0.0015  0.1838
    1WF      WF69476  15.941  18.160   0.720 -0.2571  0.3492  0.0711
    1WF      WF69477   2.344   0.576   1.788 -0.2384  0.1721 -0.1794
    1WF      WF69478   6.984   5.055   1.193 -0.0674 -0.2319  0.0415
    1WF      WF69479  15.989  20.511   9.405  0.0862  0.1108  0.0804
    1WF      WF69480   2.910  19.481   6.962 -0.0820  0.5247 -0.1297
    1WF      WF69481  16.961  16.696   9.118 -0.3072  0.1052 -0.1368
    1WF      WF69482   4.687  28.218   8.900 -0.1139  0.0769 -0.1572
    1WF      WF69483   5.751  14.007   3.171  0.0666 -0.1939  0.1702
    1WF      WF69484   3.260   6.418   1.835 -0.2420  0.2772  0.2758
    1WF      WF69485   1.033  11.808   6.878 -0.0207 -0.3043 -0.1183
    1WF      WF69486  26.438   1.226   8.677 -0.0441  0.1488  0.1393
    1WF      WF69487  12.612  14.476   9.122  0.1165 -0.0166  0.1938
    1WF      WF69488  21.667  10.362   0.840 -0.2005  0.0594 -0.3499
    1WF      WF69489   1.391  28.617   8.407 -0.0577 -0.0178  0.0676
    1WF      WF69490  18.446   9.723   8.607  0.1598 -0.3015  0.1663
    1WF      WF69491  16.873  19.231   9.396  0.1428  0.1188  0.2244
    1WF      WF69492  19.004   8.277   1.348  0.2806 -0.1082  0.0299
    1WF      WF69493   7.879   7.743   2.002  0.0511  0.0529 -0.2448
    1WF      WF69494  22.753   8.516   7.848 -0.0870 -0.0398 -0.0116
    1WF      WF69495  29.726  24.313   7.577 -0.0217  0.0305 -0.2522
    1WF      WF69496  15.135   6.786   8.524 -0.3552 -0.3436 -0.2919
    1WF      WF69497  27.885  29.163   6.272 -0.0945 -0.0207  0.1121
    1WF      WF69498  25.463  21.448   5.784  0.2285 -0.2211  0.1541
    1WF      WF69499   8.694  20.834   7.306  0.0443 -0.4087  0.0865
    1WF      WF69500  14.991  16.907   1.387  0.0169 -0.1247 -0.1252
    1WF      WF69501  24.951  10.492   1.321  0.1782 -0.0956 -0.0264
    1WF      WF69502  27.523  28.115   0.759  0.0076  0.0169 -0.2648
    1WF      WF69503   5.889  15.042   1.219 -0.0715  0.0145 -0.1803
    1WF      WF69504  16.794  19.354   8.525 -0.0159  0.0664  0.4794
    1WF      WF69505   1.765  26.496   0.527 -0.3947  0.0983  0.0385
    1WF      WF69506   2.431   3.844   6.413  0.0159 -0.2029  0.0506
    1WF      WF69507  15.201  23.461   8.318 -0.1643 -0.2924 -0.1101
    1WF      WF69508  14.084   7.985   3.189  0.0187 -0.2658  0.1042
    1WF      WF69509   4.981   6.782   0.105 -0.2204 -0.0583  0.2828
    1WF      WF69510  20.895   0.382   0.257  0.2295  0.1218 -0.3983
    1WF      WF69511   2.990  23.383   6.999  0.3745 -0.1136 -0.0011
    1WF      WF69512  22.405   4.154   3.026  0.2875 -0.2047 -0.4207
    1WF      WF69513  23.547  23.288   6.103  0.0661  0.0033  0.0428
    1WF      WF69514   2.124   4.328   1.556 -0.0159 -0.0314  0.1724
    1WF      WF69515  18.127   8.455   8.308  0.0155  0.0964  0.1166
    1WF      WF69516  15.110  29.005   1.402  0.1998  0.3573  0.0972
    1WF      WF69517  19.350  20.019   0.617  0.1262  0.1084 -0.3519
    1WF      WF69518   9.955  18.551   7.898  0.1464  0.0775  0.0162
    1WF      WF69519   7.187   7.357   9.213 -0.2311 -0.2403  0.1079
    1WF      WF69520  21.091  24.379   1.425  0.1165  0.0061 -0.3423
    1WF      WF69521   9.915   7.198   0.545  0.1490 -0.1326 -0.1620
    1WF      WF69522   6.371   5.818   1.706 -0.0104  0.0690  0.2387
    1WF      WF69523  10.456   8.126   2.229 -0.0059  0.0903  0.2212
    1WF      WF69524   1.728  15.231   8.468 -0.2402 -0.1023 -0.3206
    1WF      WF69525  18.473   2.110   9.020  0.0293 -0.1199 -0.0156
    1WF      WF69526  28.710  20.132   0.813 -0.0024  0.0644  0.3034
    1WF      WF69527  14.516  24.504   0.933  0.1369 -0.0270  0.0949
    1WF      WF69528  10.053  16.345   9.337  0.0922 -0.2180  0.5988
    1WF      WF69529  12.852   2.540   2.163  0.0842  0.2037  0.2159
    1WF      WF69530  14.338  15.125   8.620 -0.2514  0.3675 -0.1542
    1WF      WF69531   7.582  13.753   2.115 -0.1511 -0.1293  0.1267
    1WF      WF69532  29.982  14.721   9.391 -0.2729  0.0349  0.1982
    1WF      WF69533  24.327  17.900   8.467  0.0613  0.0568  0.0450
    1WF      WF69534  16.814   1.247   1.421  0.1243 -0.0635 -0.0819
    1WF      WF69535  22.968   5.002   0.951 -0.0020  0.0200  0.0182
    1WF      WF69536  15.564  15.356   0.855 -0.1635  0.0264 -0.1279
    1WF      WF69537   1.395  19.527   8.940  0.2708 -0.4933  0.0209
    1WF      WF69538  20.441   4.132   8.262 -0.0545  0.1498  0.1410
    1WF      WF69539  26.793   2.946   8.394  0.1774  0.3055 -0.2249
    1WF      WF69540  27.440  14.683   6.450 -0.2380 -0.1662 -0.1340
    1WF      WF69541   0.374  28.317   1.929 -0.1225 -0.1319 -0.2018
    1WF      WF69542  15.872   7.589   0.774  0.1545 -0.1217  0.0554
    1WF      WF69543  20.792  23.847   6.510 -0.2480  0.0087  0.0798
    1WF      WF69544   8.309   5.977   9.121 -0.0926 -0.1000 -0.0094
    1WF      WF69545   1.653  18.929   6.586  0.0627 -0.1730 -0.0320
    1WF      WF69546  16.219  19.370   2.011 -0.2401 -0.1221  0.2418
    1WF      WF69547   1.359  15.583   8.409 -0.0117 -0.1675 -0.3074
    1WF      WF69548   4.553   5.589   8.415  0.2923 -0.2287 -0.0739
    1WF      WF69549  17.123  28.578   1.574  0.0549  0.0891 -0.2743
    1WF      WF69550   1.561   1.560   9.289 -0.0191  0.1666  0.0888
    1WF      WF69551  19.676  20.614   1.876 -0.1842  0.0619 -0.1103
    1WF      WF69552   6.388  15.502   8.548 -0.0211 -0.2179  0.0655
    1WF      WF69553   0.863   8.031   0.214 -0.3907  0.3112  0.3192
    1WF      WF69554  26.276  25.446   1.104  0.2288  0.0820 -0.2464
    1WF      WF69555  17.081  23.816   0.214  0.1901 -0.2279  0.2772
    1WF      WF69556  27.753  14.199   6.870  0.1895 -0.0608 -0.5059
    1WF      WF69557  17.952  11.285   8.252 -0.2538  0.0372  0.1841
    1WF      WF69558  22.931  23.789   9.062 -0.1648 -0.0158 -0.0863
    1WF      WF69559  18.444   1.993   0.496  0.3637 -0.0429 -0.4191
    1WF      WF69560  19.336   6.497   9.177 -0.2251 -0.0979 -0.2392
    1WF      WF69561  22.701   5.277   6.912 -0.0957  0.1307  0.0609
    1WF      WF69562   9.960   9.858   0.924 -0.1963 -0.0724  0.0486
    1WF      WF69563  20.122  11.414   7.974  0.0109 -0.0201  0.0256
    1WF      WF69564  22.803   4.256   2.661 -0.0013 -0.0162  0.3006
    1WF      WF69565   4.759  21.669   6.528 -0.4151  0.1610  0.0959
    1WF      WF69566  26.973  23.289   7.160 -0.1331 -0.0554 -0.2309
    1WF      WF69567  25.238  13.273   7.056  0.1107  0.0924  0.0217
    1WF      WF69568   0.939  29.390   0.269 -0.0349 -0.0172 -0.0891
    1WF      WF69569  26.590  10.005   1.282  0.3842  0.1969  0.1344
    1WF      WF69570   9.287   8.466   9.357  0.0326  0.2543  0.2316
    1WF      WF69571   1.637  18.408   8.521  0.1178 -0.0017 -0.0194
    1WF      WF69572  13.221  26.773   0.036 -0.3546  0.0526  0.0783
    1WF      WF69573   5.622  13.782   0.536  0.0156 -0.1733 -0.2635
    1WF      WF69574  21.012  20.930   7.293 -0.0452 -0.3526 -0.3869
    1WF      WF69575  24.223  23.656   1.928  0.1027  0.0116 -0.0897
    1WF      WF69576   9.000  21.100   8.123 -0.0799 -0.1942  0.1604
    1WF      WF69577   0.329  24.327   0.465  0.0314 -0.0593  0.0671
    1WF      WF69578  10.681   3.281   1.484 -0.1098 -0.3960 -0.1760
    1WF      WF69579   3.681   1.638   8.585  0.1145 -0.1068  0.0982
    1WF      WF69580  29.759  23.437   9.068 -0.3179 -0.0557  0.1370
    1WF      WF69581  11.690   9.464   8.759  0.0094  0.2070  0.1731
    1WF      WF69582  10.246  12.167   0.866  0.3077  0.0237  0.0304
    1WF      WF69583  29.119  18.063   6.771  0.1559  0.1109 -0.1817
    1WF      WF69584   8.386  23.433   0.357 -0.0587  0.2036 -0.3943
    1WF      WF69585   5.255  16.111   7.865 -0.0757  0.0804  0.0882
    1WF      WF69586  28.349   5.952   7.976 -0.0618 -0.0822 -0.0022
    1WF      WF69587  18.638  29.755   8.770 -0.1766 -0.0862  0.2504
    1WF      WF69588  29.503  21.954   2.546  0.3854  0.0540  0.1828
    1WF      WF69589   4.783  20.658   8.433 -0.0414 -0.0438 -0.3481
    1WF      WF69590  13.522  24.073   1.773 -0.0037 -0.3656  0.0551
    1WF      WF69591  23.693  27.161   9.388  0.0027  0.2292  0.0429
    1WF      WF69592  26.609  21.871   8.420 -0.1643 -0.0880  0.2143
    1WF      WF69593  23.258   1.269   7.451  0.2646  0.1029 -0.2964
    1WF      WF69594  12.527   7.132   0.889  0.1223 -0.0190 -0.0000
    1WF      WF69595  16.044  12.806   8.147  0.1251 -0.0369  0.1216
    1WF      WF69596   3.629  26.919   8.641 -0.1971 -0.2242 -0.1547
    1WF      WF69597   3.930  27.010   1.979 -0.0080 -0.0092  0.1285
    1WF      WF69598  12.880  19.024   9.078  0.1068  0.1783 -0.0645
    1WF      WF69599  29.974  20.470   7.245  0.0209  0.2399 -0.1707
    1WF      WF69600   0.448   3.643   8.666 -0.0512 -0.0283 -0.1891
    1WF      WF69601  17.715  21.212   8.551  0.1387  0.4827  0.0250
    1WF      WF69602  13.835  16.114   0.394  0.2499  0.0306  0.2148
    1WF      WF69603  15.046  22.205   7.646  0.3794 -0.0186 -0.0403
    1WF      WF69604  25.263   6.295   0.905 -0.1601 -0.0298 -0.0123
    1WF      WF69605   7.060  12.275   1.933 -0.3252 -0.0975  0.0590
    1WF      WF69606  16.292   2.882   2.631 -0.0287  0.4150 -0.0944
    1WF      WF69607  24.809  16.966   6.671  0.2304  0.0406  0.2695
    1WF      WF69608  24.366  11.713   8.684 -0.0992 -0.1422  0.1745
    1WF      WF69609  28.622  15.422   7.234 -0.4804  0.0769 -0.3535
    1WF      WF69610  11.091  17.502   0.612 -0.0072 -0.0861  0.0758
    1WF      WF69611  13.526   3.036   0.904 -0.0842 -0.2785  0.0530
    1WF      WF69612  17.989  25.839   9.303  0.2233 -0.0972 -0.0500
    1WF      WF69613  19.496   8.063   1.318  0.1547 -0.3493  0.1277
    1WF      WF69614   3.778  17.981   8.407 -0.1535  0.3567 -0.0957
    1WF      WF69615  24.585  13.073   6.766  0.1148  0.2068  0.0491
    1WF      WF69616   0.634  22.108   7.889 -0.2288  0.1429 -0.0422
    1WF      WF69617   7.325  26.883   7.313  0.1234 -0.0940  0.1952
    1WF      WF69618  22.768  28.747   8.505  0.2841  0.1394  0.3358
    1WF      WF69619   1.304  24.866   8.818  0.0113  0.0256 -0.0421
    1WF      WF69620  24.515   9.732   0.706  0.2702 -0.0596 -0.0460
    1WF      WF69621   7.845  26.229   6.567  0.0546 -0.1369  0.1569
    1WF      WF69622  21.874  27.059   8.900 -0.5924  0.0928 -0.3021
    1WF      WF69623  26.826  11.233   2.332  0.2423 -0.3661 -0.2309
    1WF      WF69624  24.380   3.161   2.024 -0.2133 -0.1722  0.0824
    1WF      WF69625   0.682   5.237   0.949  0.0818  0.0683 -0.1298
    1WF      WF69626  12.575  12.976   1.712  0.0746 -0.0241  0.0531
    1WF      WF69627   3.717  11.529   8.954  0.1658  0.3266  0.0623
    1WF      WF69628   3.197  19.901   6.816 -0.1777 -0.1110 -0.0911
    1WF      WF69629  22.393   4.572   2.675 -0.4629  0.3225 -0.1365
    1WF      WF69630  22.727  19.738   0.190 -0.0912  0.0345  0.2809
    1WF      WF69631  15.872  18.148   0.130 -0.0841 -0.1525  0.1170
    1WF      WF69632   3.555   2.545   7.986 -0.0967  0.0246 -0.0590
    1WF      WF69633  13.598  16.217   9.342  0.2083 -0.1210 -0.0274
    1WF      WF69634  16.254  30.102   6.552 -0.0070 -0.1276  0.2111
    1WF      WF69635   2.883   4.491   8.419 -0.0555 -0.2595 -0.0963
    1WF      WF69636  13.315  26.323   0.163  0.1756  0.3692  0.1913
    1WF      WF69637  15.209  11.787   9.196  0.2835  0.1868  0.0803
    1WF      WF69638  10.664  22.182   0.372 -0.3169 -0.1749  0.0284
    1WF      WF69639   9.825  26.514   9.071 -0.3032 -0.1276 -0.0918
    1WF      WF69640   4.461   0.512   9.323 -0.1098 -0.1324  0.2771
    1WF      WF69641   5.506  18.505   9.075  0.2486 -0.2848 -0.0296
    1WF      WF69642   8.830  19.879   0.528  0.0247 -0.0099  0.0562
    1WF      WF69643  22.550   5.511   8.905  0.1875  0.2333 -0.1215
    1WF      WF69644   5.076   6.764   1.082  0.1004 -0.1818  0.0129
    1WF      WF69645  22.259  24.496   7.941 -0.0346  0.1762  0.0729
    1WF      WF69646  13.487  18.709   1.121 -0.3005  0.0971  0.0359
    1WF      WF69647  11.050   1.857   1.406  0.2661  0.2522 -0.1858
    1WF      WF69648  24.829  17.818   8.370 -0.3638 -0.1595 -0.0383
    1WF      WF69649  16.164  29.169   8.632 -0.0485 -0.2317  0.0743
    1WF      WF69650  26.028  14.629   0.932 -0.0040 -0.0161 -0.0110
    1WF      WF69651   7.957  27.927   0.431  0.1367  0.1387 -0.0892
    1WF      WF69652   3.246   8.512   0.670 -0.0167 -0.0249 -0.1213
    1WF      WF69653  27.804   5.133   9.007 -0.2299  0.1486  0.1623
    1WF      WF69654  28.632  19.542   0.062  0.0710  0.2124 -0.0329
    1WF      WF69655  18.940   9.955   1.018  0.1710 -0.0832 -0.1908
    1WF      WF69656  11.290   0.706   9.094 -0.1574  0.0773 -0.1326
    1WF      WF69657  18.399  14.327   0.588  0.1242  0.2446  0.1651
    1WF      WF69658  22.123  21.252   7.438  0.0673 -0.2700 -0.4376
    1WF      WF69659   1.033   7.573   6.834  0.3057 -0.1148  0.2623
    1WF      WF69660   6.328  15.736   2.687  0.1428 -0.1031 -0.1149
    1WF      WF69661   0.710  12.259   5.715  0.1238 -0.1784 -0.0705
    1WF      WF69662   9.259  13.319   3.343 -0.2292 -0.0725  0.2179
    1WF      WF69663  15.695  29.146   8.968  0.2098 -0.2189 -0.0467
    1WF      WF69664  21.864  17.616   9.080 -0.0142 -0.0709  0.1145
    1WF      WF69665  27.457  24.661   8.143 -0.2950  0.2042  0.3070
    1WF      WF69666   0.885  19.448   6.745 -0.3828  0.1270  0.2161
    1WF      WF69667   8.502  13.309   1.658 -0.0661 -0.1727 -0.0545
    1WF      WF69668   8.641  13.047   8.961 -0.2192  0.1490  0.0884
    1WF      WF69669  14.981  20.460   0.466 -0.3073  0.3301  0.1526
    1WF      WF69670  17.944   6.832   2.015  0.0970 -0.0155 -0.2902
    1WF      WF69671   6.114  24.621   7.878  0.1972  0.0535 -0.0115
    1WF      WF69672   7.995   3.885   0.943 -0.1738  0.2109  0.2356
    1WF      WF69673  22.815  11.462   2.638  0.0611  0.2616 -0.0516
    1WF      WF69674  10.006  24.522   9.091  0.1646 -0.3504  0.0158
    1WF      WF69675  26.256  26.591   8.928  0.1924  0.0712 -0.2980
    1WF      WF69676   0.084  12.721   6.960  0.1886  0.0487 -0.1302
    1WF      WF69677   7.970  21.376   7.890  0.2359 -0.0524 -0.5018
    1WF      WF69678  16.732  14.360   0.197  0.1151  0.0646  0.0494
    1WF      WF69679   3.976  18.246   1.766 -0.2714  0.2879  0.1318
    1WF      WF69680   4.299   0.794   8.949 -0.2294 -0.1498 -0.0250
    1WF      WF69681  18.604  28.836   6.396  0.0341 -0.2334 -0.0810
    1WF      WF69682   2.544  22.698   7.991  0.1699  0.1107  0.4592
    1WF      WF69683   0.167   0.998   7.885 -0.1600 -0.0033 -0.0006
    1WF      WF69684   1.166  24.816   9.338 -0.1607 -0.1219  0.2478
    1WF      WF69685  21.910   1.654   0.999  0.1343  0.2035 -0.0881
    1WF      WF69686   6.482  21.884   1.019 -0.3064 -0.2770 -0.0699
    1WF      WF69687  20.103  19.120   0.291  0.2717 -0.0545  0.2279
    1WF      WF69688  28.881  22.931   1.278  0.0549 -0.1606 -0.1943
    1WF      WF69689   2.447   6.892   2.503  0.0013 -0.2482  0.1447
    1WF      WF69690  12.468  22.907   2.960  0.0859 -0.1243 -0.1072
    1WF      WF69691  26.770  15.227   7.157  0.0142  0.0955 -0.1665
    1WF      WF69692   7.669  20.753   0.509  0.2307  0.1816 -0.0472
    1WF      WF69693  12.993  17.248   8.209  0.0935  0.0834 -0.0912
    1WF      WF69694   9.477   4.780   1.890  0.2938  0.0969 -0.2330
    1WF      WF69695   5.830  17.133   0.458  0.1807  0.1462  0.0988
    1WF      WF69696   8.958  14.622   6.575 -0.1491  0.1613 -0.2280
    1WF      WF69697  24.003  10.843   2.284 -0.3652 -0.2084  0.1867
    1WF      WF69698   0.354  17.109   6.966  0.1243 -0.0770  0.2706
    1WF      WF69699  22.274  15.123   0.470 -0.0734 -0.0486  0.0434
    1WF      WF69700   7.821   6.527   2.118  0.0103  0.2427  0.0923
    1WF      WF69701  20.285  15.520   7.888 -0.1719 -0.0511 -0.0169
    1WF      WF69702  18.381  18.105   8.969  0.0165  0.2159 -0.0492
    1WF      WF69703  20.211  28.562   0.404  0.0158  0.0980 -0.0492
    1WF      WF69704   0.397   1.022   0.412 -0.1432 -0.1675  0.2114
    1WF      WF69705   7.488  11.673   1.090  0.1228  0.0986  0.0253
    1WF      WF69706   5.139   6.891   0.573 -0.0688  0.3325  0.4383
    1WF      WF69707   3.901  26.165   1.972  0.0665  0.0810 -0.1843
    1WF      WF69708   1.744  17.646   9.227  0.1011 -0.3258 -0.0062
    1WF      WF69709  24.580  11.574   9.100 -0.2651 -0.1271 -0.2624
    1WF      WF69710  11.231  28.042   7.948 -0.2924 -0.2818  0.2038
    1WF      WF69711   0.606   9.716   9.220 -0.3075 -0.1183  0.1667
    1WF      WF69712   8.418   0.141   1.040 -0.1817 -0.1619 -0.0179
    1WF      WF69713  15.188   3.780   3.663  0.2157  0.2273 -0.1716
    1WF      WF69714   4.111  12.333   0.724 -0.2069 -0.0454  0.0921
    1WF      WF69715  29.452  20.448   0.232 -0.2013  0.0632 -0.0513
    1WF      WF69716   9.359  13.678   0.139  0.1388  0.1316  0.1159
    1WF      WF69717  27.783  21.252   8.672 -0.1658  0.0472  0.0878
    1WF      WF69718   2.565  21.574   6.940  0.1505 -0.0497  0.0619
    1WF      WF69719   9.582  13.927   2.171  0.1398 -0.0012  0.0556
    1WF      WF69720  14.203   7.929   2.694 -0.0070 -0.0572  0.0426
    1WF      WF69721  21.334  27.764   8.446  0.0615  0.0184  0.2680
    1WF      WF69722   3.900  17.487   8.275  0.2074  0.1309 -0.0176
    1WF      WF69723  19.995  10.942   8.103 -0.0924 -0.1137 -0.1305
    1WF      WF69724  22.598  18.999   2.044  0.0509 -0.0728 -0.2011
    1WF      WF69725  25.161   7.265   8.532 -0.2059  0.1488 -0.0446
    1WF      WF69726  23.141  23.714   0.158  0.0017  0.2221  0.4563
    1WF      WF69727  11.136  25.832   8.704  0.3375 -0.0040  0.1679
    1WF      WF69728   3.162   3.294   2.149  0.2606  0.0263  0.0671
    1WF      WF69729   2.112  12.038   0.343 -0.2033  0.3667 -0.0480
    1WF      WF69730   9.660   2.304   8.657 -0.3246  0.2687 -0.1874
    1WF      WF69731  13.895  17.555   1.875 -0.0578 -0.1358 -0.2473
    1WF      WF69732  29.853   9.202   7.257  0.0538  0.0057 -0.0568
    1WF      WF69733  30.069   7.869   8.050  0.0883 -0.1445  0.1713
    1WF      WF69734  22.803  14.574   8.948  0.2546 -0.0228 -0.1307
    1WF      WF69735  18.858   8.814   8.637  0.2723  0.2792  0.1808
    1WF      WF69736  11.624  28.229   0.561 -0.1452 -0.1031 -0.1513
    1WF      WF69737  23.351  21.738   8.003  0.3083 -0.3052  0.1367
    1WF      WF69738  24.199   6.395   3.301  0.1393  0.2347 -0.1718
    1WF      WF69739   5.090   0.354   0.547  0.0512  0.1859 -0.2562
    1WF      WF69740   4.769  17.935   9.346 -0.0433  0.2333 -0.0443
    1WF      WF69741   8.384   4.164   1.176  0.1872  0.0414  0.0522
    1WF      WF69742  25.497  12.817   6.968 -0.1567 -0.3545 -0.0798
    1WF      WF69743  14.661  19.196   8.397  0.0162  0.0841 -0.1297
    1WF      WF69744   5.199  26.583   2.561 -0.2107  0.2100 -0.1793
    1WF      WF69745  12.411  12.800   2.205  0.0496  0.0813 -0.0281
    1WF      WF69746  18.989  14.818   0.039  0.0324 -0.1893  0.2238
    1WF      WF69747  29.059   2.659   1.896  0.1871 -0.0285 -0.3069
    1WF      WF69748   8.369   8.266   3.315 -0.2343 -0.0941 -0.3333
    1WF      WF69749   2.477  17.728   7.123  0.2685 -0.2170 -0.1453
    1WF      WF69750  22.196   0.476   9.307  0.0036  0.0308  0.3567
    1WF      WF69751  15.434  24.917   1.038  0.0695 -0.0162  0.1715
    1WF      WF69752   2.433   8.803   7.432  0.0270  0.1343  0.0486
    1WF      WF69753   2.563  20.256   0.296 -0.1017 -0.0529  0.0748
    1WF      WF69754   4.638  22.334   7.884 -0.2360  0.0018 -0.0751
    1WF      WF69755  19.336   7.980   6.739  0.0828  0.2387 -0.0853
    1WF      WF69756  25.985   4.810   1.477 -0.1006 -0.3633 -0.3465
    1WF      WF69757   9.047   1.564   8.713  0.3047 -0.3456  0.1820
    1WF      WF69758  10.920   4.667   0.329  0.1249 -0.1334 -0.2338
    1WF      WF69759  17.228  18.952   9.184  0.1256 -0.1099  0.0880
    1WF      WF69760   0.096   3.257   3.218 -0.1763  0.3423 -0.1723
    1WF      WF69761  12.945   7.293   1.051  0.1067 -0.0837  0.0886
    1WF      WF69762  12.197   9.200   0.270 -0.0831 -0.1238  0.0918
    1WF      WF69763  15.348   0.737   0.839  0.0276  0.0760 -0.3703
    1WF      WF69764  12.780   2.075   9.276  0.1258  0.1361 -0.3499
    1WF      WF69765  25.413   9.449   6.969 -0.0836  0.1237  0.1250
    1WF      WF69766   7.519  19.088   8.352  0.0578 -0.3462 -0.1743
    1WF      WF69767  23.918  11.108   7.169 -0.1477 -0.0629 -0.1438
    1WF      WF69768  29.635  20.062   9.367 -0.0703  0.0517 -0.3321
    1WF      WF69769  20.111  29.961   7.479  0.0826 -0.2317  0.0378
    1WF      WF69770  27.848   1.326   6.255  0.2762  0.1542 -0.1542
    1WF      WF69771  13.845  29.615   8.890  0.0387 -0.2895  0.2452
    1WF      WF69772   3.363  11.086   8.798  0.1345 -0.0604 -0.2453
    1WF      WF69773  10.763  21.013   8.760  0.3202  0.0390 -0.1084
    1WF      WF69774   3.140  19.723   7.335  0.0530 -0.0649 -0.0136
    1WF      WF69775  21.174  24.355   8.236 -0.1143 -0.0281  0.0282
    1WF      WF69776  27.806  14.952   6.545  0.1350 -0.1490  0.1039
    1WF      WF69777  12.789  16.084   8.044  0.2076  0.0270  0.0664
    1WF      WF69778  28.466   3.690   8.610  0.0221 -0.1515  0.0378
    1WF      WF69779  10.291  19.705   0.443 -0.0478  0.0667  0.0305
    1WF      WF69780  15.991   2.527   1.178 -0.0908  0.0509  0.1271
    1WF      WF69781   0.564   2.524   2.219 -0.1420  0.2740  0.1316
    1WF      WF69782  13.138  19.494   0.078  0.2834 -0.4405 -0.0221
    1WF      WF69783  14.663   3.866   8.336  0.0807 -0.0292  0.0572
    1WF      WF69784  18.575   8.348   8.496  0.1593 -0.2634 -0.2235
    1WF      WF69785   6.511  12.155   1.848 -0.2148 -0.1070 -0.0335
    1WF      WF69786   3.793  11.824   2.105 -0.0690 -0.0545  0.1053
    1WF      WF69787   9.868  25.455   7.936  0.3573 -0.1645  0.3073
    1WF      WF69788   6.787  27.122   2.061  0.1787 -0.2330 -0.1854
    1WF      WF69789  27.081   9.050   7.524 -0.1096 -0.0886  0.0961
    1WF      WF69790   8.507  11.477   0.885 -0.2087  0.0886  0.1880
    1WF      WF69791  27.408  17.589   8.919 -0.0551 -0.0847  0.0911
    1WF      WF69792  10.615   7.034   1.610 -0.2717 -0.1627  0.0574
    1WF      WF69793  27.435  16.439   7.122 -0.5504  0.0853 -0.2457
    1WF      WF69794   2.138  22.262   8.233  0.2798 -0.4019  0.2872
    1WF      WF69795  15.084  25.240   0.796  0.1574 -0.0144 -0.1108
    1WF      WF69796  18.191   1.570   0.654 -0.0461 -0.1617 -0.0499
    1WF      WF69797   3.936  15.843   9.352 -0.1859  0.1420 -0.2533
    1WF      WF69798  13.013  26.927   6.467 -0.1096 -0.2196  0.1468
    1WF      WF69799   4.353   3.649   6.494 -0.1843 -0.0925  0.0158
    1WF      WF69800  15.026   6.994   8.969 -0.2866 -0.0694 -0.0277
    1WF      WF69801   4.043   1.165   8.664  0.0183 -0.0558 -0.2361
    1WF      WF69802  19.880   0.185   7.282  0.2360  0.1118  0.0973
    1WF      WF69803  19.968  27.931   6.149  0.2349  0.1462  0.2546
    1WF      WF69804  17.226   8.401   8.743 -0.1623  0.4378 -0.1797
    1WF      WF69805  28.703  15.570   8.856  0.2775  0.0801 -0.0464
    1WF      WF69806   8.815   2.265   6.163 -0.1076  0.2179 -0.1910
    1WF      WF69807  22.651  14.572   8.352 -0.2415  0.3049 -0.1186
    1WF      WF69808  26.074  13.735   0.547  0.1244  0.1264  0.0647
    1WF      WF69809  11.225  18.647   1.099 -0.4371 -0.0080  0.2877
    1WF      WF69810  27.825  27.439   8.736  0.0490  0.1456 -0.0297
    1WF      WF69811   0.047  18.345   8.567  0.0203  0.0346  0.1818
    1WF      WF69812   0.024  17.473   5.716 -0.1613 -0.0219  0.5279
    1WF      WF69813  13.118  16.968   0.449  0.1246  0.0494  0.1678
    1WF      WF69814  17.032  26.071   0.277 -0.1804  0.1652 -0.2462
    1WF      WF69815  17.181  27.013   1.528 -0.0071 -0.1220  0.0018
    1WF      WF69816   9.997  10.310   0.796  0.1204  0.0262 -0.0610
    1WF      WF69817  24.876  29.577   8.040 -0.5186  0.0497 -0.1958
    1WF      WF69818  26.839  15.270   9.390  0.1576 -0.0169  0.3892
    1WF      WF69819  22.551   1.764   8.826  0.4608 -0.1449 -0.1698
    1WF      WF69820   6.698  25.722   8.130 -0.0298 -0.2025 -0.2700
    1WF      WF69821  27.136  12.717   7.144 -0.2465 -0.2311  0.2314
    1WF      WF69822  19.418  12.862   2.514 -0.1605  0.1999  0.1430
    1WF      WF69823   7.331  29.160   8.951 -0.2175  0.1945 -0.0477
    1WF      WF69824  14.151  24.780   1.348 -0.1652 -0.4730  0.2887
    1WF      WF69825  22.987   1.700   8.580 -0.3030  0.1490  0.3365
    1WF      WF69826  30.006   8.468   0.243 -0.3440 -0.3963 -0.1047
    1WF      WF69827  16.717  13.339   7.685  0.2715  0.2163 -0.0748
    1WF      WF69828   2.320  18.918   2.118  0.1640  0.0091 -0.1227
    1WF      WF69829   0.700  21.078   0.706  0.1169 -0.0136 -0.1250
    1WF      WF69830  25.530  11.164   6.782 -0.0803 -0.7540 -0.0452
    1WF      WF69831  21.577  17.777   8.673  0.0488  0.1858  0.2820
    1WF      WF69832  26.634   7.903   1.287  0.2969  0.1249 -0.0695
    1WF      WF69833  22.163  10.735   0.264  0.4653 -0.0114  0.1824
    1WF      WF69834   9.903   4.489   8.105 -0.1352 -0.0217  0.1843
    1WF      WF69835  21.762   6.661   2.359 -0.1193  0.0762  0.1195
    1WF      WF69836   1.421   9.880   7.768  0.1057  0.1206 -0.4419
    1WF      WF69837   9.115  10.507   0.295 -0.3363 -0.1558 -0.2397
    1WF      WF69838   9.037   8.978   2.181  0.0395 -0.2052 -0.3078
    1WF      WF69839  29.856  14.311   8.549  0.0571 -0.3158 -0.0343
    1WF      WF69840   5.674  15.753   8.131 -0.0224  0.0213  0.3552
    1WF      WF69841  26.141  13.579   0.059 -0.3513 -0.1843  0.0033
    1WF      WF69842  18.125  19.938   8.911  0.0254  0.2374  0.3503
    1WF      WF69843  10.641   4.430   0.011 -0.2850  0.1437 -0.2975
    1WF      WF69844   6.322   1.653   1.783  0.1151  0.1075  0.0650
    1WF      WF69845  21.782   7.526   0.376  0.2145  0.2498  0.1760
    1WF      WF69846  20.695  16.623   8.553  0.4244 -0.0026  0.4204
    1WF      WF69847   6.253  24.378   7.400 -0.1611  0.2199  0.0362
    1WF      WF69848  23.319  14.618   7.654  0.0483 -0.0745 -0.1204
    1WF      WF69849   2.284  25.781   9.103  0.0130 -0.1303  0.1179
    1WF      WF69850  26.920  17.612   8.822 -0.1040  0.0136  0.0770
    1WF      WF69851  29.454  14.372   8.270  0.2529  0.0733 -0.1574
    1WF      WF69852  27.219   6.556   7.909 -0.1834 -0.1192  0.1679
    1WF      WF69853  29.902  18.011   0.483 -0.0202 -0.1686  0.4335
    1WF      WF69854  13.267  25.658   0.577  0.1020  0.0992  0.2069
    1WF      WF69855  29.278  22.347   0.842 -0.1482 -0.0650 -0.0089
    1WF      WF69856   6.207  10.698   1.134  0.2759  0.0002  0.0863
    1WF      WF69857   6.275  24.076   8.848 -0.0347 -0.3024  0.0553
    1WF      WF69858   6.698  29.218   1.553 -0.0958  0.3309  0.0471
    1WF      WF69859   6.065  20.705   1.039 -0.0652  0.1033 -0.1005
    1WF      WF69860   6.838   7.440   8.352 -0.1902 -0.0281 -0.2235
    1WF      WF69861  22.494  16.346   8.926  0.0100  0.2103 -0.1190
    1WF      WF69862   5.299  21.407   0.323  0.0705  0.0956 -0.2398
    1WF      WF69863  13.691   4.593   0.673  0.2183 -0.1339  0.1072
    1WF      WF69864  12.546  14.422   0.221 -0.2701  0.0035 -0.0823
    1WF      WF69865  17.762  17.583   0.773  0.0770  0.1819  0.0781
    1WF      WF69866  11.431  25.531   8.930 -0.1895 -0.1321 -0.1511
    1WF      WF69867  18.310   1.103   1.821  0.0626 -0.0661 -0.1511
    1WF      WF69868   7.936   7.214   0.684 -0.3310 -0.2861 -0.0865
    1WF      WF69869  30.031   6.835   8.316 -0.0477  0.2583 -0.0548
    1WF      WF69870  12.434  13.323   2.299 -0.0318  0.1012  0.0982
    1WF      WF69871  13.468   1.265   1.767 -0.0122 -0.2374 -0.0032
    1WF      WF69872   9.407  21.265   8.445  0.2776 -0.0025  0.1733
    1WF      WF69873  24.192  21.511   2.715 -0.0879  0.2270  0.1407
    1WF      WF69874  29.950   0.756   1.177  0.6462  0.3932 -0.2015
    1WF      WF69875  10.004   1.430   2.061  0.1284 -0.0200  0.4214
    1WF      WF69876   1.241   0.298   2.133 -0.1703 -0.0039 -0.0965
    1WF      WF69877  24.326  16.028   8.424 -0.3256  0.3600  0.0879
    1WF      WF69878  24.842  11.100   8.770  0.0172  0.1436 -0.2133
    1WF      WF69879   1.720  15.888   9.004 -0.0874 -0.0959  0.2681
    1WF      WF69880  28.915   2.689   8.660 -0.0720 -0.1649  0.2644
    1WF      WF69881  28.213   5.582   7.495  0.0697 -0.1984 -0.1889
    1WF      WF69882  19.626  28.296   8.169  0.1164 -0.2033  0.2732
    1WF      WF69883  25.374  11.085   8.742  0.2480 -0.1512 -0.0532
    1WF      WF69884   4.365  11.167   3.178 -0.2035  0.3679 -0.1344
    1WF      WF69885  29.316  17.096   9.334 -0.0842  0.0813  0.2989
    1WF      WF69886   2.619  13.703   0.641 -0.1400 -0.1077 -0.0715
    1WF      WF69887  21.307  24.832   8.281 -0.0932  0.4243 -0.0811
    1WF      WF69888  22.841  26.013   8.029  0.2332 -0.0002 -0.0051
    1WF      WF69889  29.334  24.837   1.383 -0.2171 -0.2723 -0.1365
    1WF      WF69890   1.543  29.852   0.147  0.1416  0.2341 -0.3286
    1WF      WF69891  12.247  10.439   1.913  0.0888 -0.1713  0.1338
    1WF      WF69892   2.189  21.742   8.144 -0.2528 -0.1462  0.1521
    1WF      WF69893  29.781  15.492   6.874 -0.1572  0.2328  0.0463
    1WF      WF69894   8.582   4.120   2.478  0.1171 -0.1212 -0.1187
    1WF      WF69895  21.039   4.745   0.928  0.0872 -0.0864  0.5983
    1WF      WF69896  21.133   7.905   1.968  0.2306  0.3416  0.0769
    1WF      WF69897  25.376  24.913   9.154  0.0897 -0.2799 -0.1078
    1WF      WF69898   5.800   1.561   1.966 -0.0484 -0.3814 -0.3464
    1WF      WF69899   9.902  16.288   8.204 -0.2923  0.0580 -0.0532
    1WF      WF69900  25.384   1.441   8.037  0.2000 -0.1223  0.0517
    1WF      WF69901  29.326  25.966   7.055  0.1513 -0.0344 -0.1133
    1WF      WF69902  19.665  18.811   8.661 -0.2387  0.3355 -0.1124
    1WF      WF69903  12.772  16.679   8.075 -0.0232 -0.0453 -0.0622
    1WF      WF69904  28.406  15.760   9.222 -0.1499  0.1696  0.2338
    1WF      WF69905   5.758  24.148   7.701  0.2112 -0.0689  0.0671
    1WF      WF69906   0.400   3.345   7.569  0.1989  0.0253  0.0441
    1WF      WF69907   2.770   1.474   1.836  0.0268 -0.1594  0.0315
    1WF      WF69908  27.955   3.152   0.098  0.0764  0.1019 -0.0919
    1WF      WF69909  10.009   6.836   8.510 -0.0897 -0.0313  0.1823
    1WF      WF69910  13.120  19.855   6.904  0.3823  0.4977  0.1333
    1WF      WF69911  15.070  24.436   8.102  0.1955 -0.1252  0.1492
    1WF      WF69912   4.719  26.954   1.347  0.1168  0.1238 -0.1591
    1WF      WF69913  13.037  28.869   0.342  0.3911  0.1682 -0.0917
    1WF      WF69914  25.996  28.430   2.256  0.2201  0.2027  0.2199
    1WF      WF69915  13.771  22.722   1.070 -0.0556 -0.2861 -0.1250
    1WF      WF69916  13.619   0.232   9.328  0.0535 -0.0445  0.4810
    1WF      WF69917  19.721  13.807   9.135  0.2488 -0.0054  0.1065
    1WF      WF69918   5.045  24.884   0.345  0.2449 -0.0604 -0.4735
    1WF      WF69919   2.590  24.580   1.212  0.1810 -0.1903  0.0855
    1WF      WF69920   4.315  27.126   1.705 -0.0102  0.0377 -0.1068
    1WF      WF69921   1.364   7.224   6.914 -0.4264  0.0326  0.1924
    1WF      WF69922   0.163  10.156   6.923  0.2179 -0.0108  0.0232
    1WF      WF69923  13.465   0.501   2.831 -0.0078  0.2601  0.2246
    1WF      WF69924   4.632  28.478   9.316  0.0854  0.0354  0.0612
    1WF      WF69925  20.319  12.641   8.815  0.0942 -0.0187  0.2256
    1WF      WF69926  23.954   1.146   0.099  0.0047 -0.2083 -0.1357
    1WF      WF69927   2.312  18.543   8.728 -0.1988 -0.1381  0.1992
    1WF      WF69928  26.122   0.445   0.860  0.2591 -0.2971 -0.4511
    1WF      WF69929  29.053  28.970   1.836  0.0677  0.0474  0.0699
    1WF      WF69930  28.577  24.696   0.749  0.0799  0.1722  0.1425
    1WF      WF69931   0.657   8.240   2.597  0.0596 -0.1461 -0.3167
    1WF      WF69932  15.971  16.616   1.261  0.1226  0.2045  0.3301
    1WF      WF69933  21.060  16.298   8.475  0.4637 -0.0865  0.2516
    1WF      WF69934  10.878  29.780   0.009 -0.2186 -0.1118  0.2871
    1WF      WF69935  15.950   8.230   2.418 -0.2135  0.2906  0.0804
    1WF      WF69936  13.606   9.974   8.958 -0.2031  0.2583  0.3505
    1WF      WF69937  17.916  12.659   8.052  0.6167 -0.0699  0.3146
    1WF      WF69938   9.973  19.706   8.988 -0.0833  0.0590 -0.1987
    1WF      WF69939  15.984   8.909   2.018  0.1520 -0.0055 -0.0436
    1WF      WF69940   9.967  17.028   1.127  0.1426 -0.3427  0.1787
    1WF      WF69941   6.459   2.113   1.950  0.2965  0.0687 -0.0266
    1WF      WF69942  29.697  14.587   9.003  0.2876  0.1288  0.0370
    1WF      WF69943   0.096  25.256   1.406 -0.3134 -0.3088 -0.0615
    1WF      WF69944   3.550  21.044   7.154  0.2326 -0.2605 -0.0227
    1WF      WF69945  18.526   3.964   1.552 -0.1237  0.0882 -0.0621
    1WF      WF69946  10.409  25.204   8.707 -0.2365 -0.3019  0.1518
    1WF      WF69947   7.473   0.263   2.367 -0.1537  0.4049 -0.1626
    1WF      WF69948   1.890  23.933   6.539  0.0171  0.1232  0.1264
    1WF      WF69949  17.600   3.998   3.771  0.1354 -0.0017 -0.1184
    1WF      WF69950   8.820   5.221   8.379  0.0887  0.0383  0.0779
    1WF      WF69951  25.760  11.306   9.117  0.1381  0.2289  0.3203
    1WF      WF69952  22.987  23.952   0.616  0.4226  0.1051 -0.0417
    1WF      WF69953  15.804   5.394   0.290 -0.2019 -0.0006 -0.2092
    1WF      WF69954   4.481   0.936   8.515  0.0508  0.0118 -0.4780
    1WF      WF69955  15.690  16.287   0.406 -0.2319 -0.0429  0.1013
    1WF      WF69956  27.698   1.449   0.125 -0.4070 -0.2367 -0.1244
    1WF      WF69957  28.606  18.111   0.446 -0.0836 -0.0185 -0.1307
    1WF      WF69958  19.968   8.911   8.414 -0.0800  0.0124 -0.1204
    1WF      WF69959  27.424  25.995   7.905 -0.0298  0.1024  0.0915
    1WF      WF69960  21.480   1.989   7.678  0.1632 -0.0122  0.1527
    1WF      WF69961  21.322  29.428   7.524 -0.2681  0.2056 -0.0508
    1WF      WF69962   4.717  18.225   7.439  0.2480 -0.1847 -0.1662
    1WF      WF69963   7.312   3.647   0.377 -0.0359 -0.0273 -0.3893
    1WF      WF69964  28.668  26.809   1.545  0.1745  0.2128  0.0704
    1WF      WF69965  25.956  23.450   2.111 -0.1875  0.0902 -0.3299
    1WF      WF69966   9.324  12.900   1.873 -0.1341 -0.1599  0.0305
    1WF      WF69967  14.850  17.070   8.672 -0.0683 -0.0338 -0.2130
    1WF      WF69968  15.940  21.453   0.968  0.0182  0.1572  0.0284
    1WF      WF69969   3.944  19.582   9.047 -0.1179 -0.0915  0.0536
    1WF      WF69970   2.048  11.673   2.748 -0.1914 -0.1715  0.0139
    1WF      WF69971  22.689  11.331   6.785 -0.1730  0.2244 -0.1110
    1WF      WF69972  15.704   9.227   8.503  0.0948 -0.2269  0.1216
    1WF      WF69973   4.681  15.170   0.304 -0.1019  0.1762  0.0187
    1WF      WF69974  12.275   2.463   2.346  0.0537  0.0327  0.2284
    1WF      WF69975  11.954  20.291   0.593 -0.3199 -0.0017 -0.0854
    1WF      WF69976  25.119  24.827   8.691 -0.0320  0.0697 -0.2058
    1WF      WF69977   6.474  10.597   2.089  0.3341  0.0074  0.1538
    1WF      WF69978  19.936  18.972   1.704  0.4149 -0.1931  0.3542
    1WF      WF69979   1.579  21.047   0.208 -0.0491 -0.0046 -0.1268
    1WF      WF69980   5.239  11.278   3.394 -0.0617 -0.2678 -0.0217
    1WF      WF69981  10.947  20.619   1.943  0.0661  0.0365  0.0018
    1WF      WF69982  25.343  23.137   8.670  0.0012  0.0449  0.0448
    1WF      WF69983  10.823   8.456   0.303 -0.3030 -0.1495  0.0973
    1WF      WF69984   0.736  25.456   7.921  0.1471  0.5287  0.0797
    1WF      WF69985   7.747  23.955   0.892 -0.0716 -0.1568 -0.1155
    1WF      WF69986  28.781  13.639   0.525 -0.0688  0.1962  0.3515
    1WF      WF69987  15.318  10.223   7.296 -0.2449 -0.1151 -0.0975
    1WF      WF69988  10.674   0.462   8.403  0.1137 -0.2092  0.0559
    1WF      WF69989   7.619  17.784   7.723  0.1164  0.0745 -0.0038
    1WF      WF69990  20.491   7.763   1.166  0.0410  0.1205  0.1265
    1WF      WF69991  17.440  10.193   0.873 -0.1274  0.1626 -0.0475
    1WF      WF69992   6.555  13.430   1.802  0.0096 -0.0447  0.1404
    1WF      WF69993  25.610   7.391   7.639  0.4075  0.0273 -0.6829
    1WF      WF69994   7.566  23.916   9.301  0.2037  0.1952  0.0703
    1WF      WF69995  15.433  10.027   8.340  0.1037 -0.0693 -0.0552
    1WF      WF69996  22.813  28.992   9.043  0.3604 -0.1514 -0.0291
    1WF      WF69997   9.066  14.857   8.590 -0.1559 -0.1111  0.2248
    1WF      WF69998  26.363  24.715   7.540 -0.2760 -0.0715 -0.1544
    1WF      WF69999  24.533   1.215   1.603 -0.0805  0.0423  0.2142
    1WF      WF70000  15.489  29.892   2.376  0.0020 -0.2552  0.0909
    1WF      WF70001   1.260  20.917   0.627 -0.1041  0.0342  0.1265
    1WF      WF70002   7.720  17.125   8.967  0.3019 -0.0479  0.2532
    1WF      WF70003  21.425  26.068   0.227 -0.0169 -0.0373  0.0640
    1WF      WF70004  22.679  28.694   2.666  0.2539  0.2837  0.0500
    1WF      WF70005   2.052  13.475   8.605  0.4642 -0.1197  0.0077
    1WF      WF70006  27.181   3.660   0.053 -0.1381  0.0279 -0.1579
    1WF      WF70007  17.529  11.466   9.276  0.1969  0.4094  0.0835
    1WF      WF70008   4.496   3.089   1.110  0.0430 -0.0694  0.2337
    1WF      WF70009  28.767  14.691   0.333 -0.1149 -0.4276  0.0078
    1WF      WF70010   7.856  15.825   0.219 -0.0272 -0.0798  0.0840
    1WF      WF70011   8.728  29.628   2.213  0.0571 -0.0701  0.0291
    1WF      WF70012  27.066  30.121   0.374 -0.1155  0.0475  0.3381
    1WF      WF70013   0.807  14.658   6.986  0.2948 -0.2358  0.0229
    1WF      WF70014  21.741   2.286   1.339  0.0088 -0.0485 -0.0921
    1WF      WF70015  13.891  28.801   8.633  0.2922  0.0295 -0.1662
    1WF      WF70016  26.043  27.921   6.469  0.2748  0.1528  0.1714
    1WF      WF70017  23.637  12.524   9.098  0.4818  0.0079  0.1736
    1WF      WF70018   0.898   5.723   9.100 -0.0950  0.0828  0.1609
    1WF      WF70019  18.718   4.508   1.502 -0.2388  0.1797  0.2360
    1WF      WF70020   7.216   4.468   1.882 -0.1265  0.2407 -0.1945
    1WF      WF70021  16.807  28.914   1.301 -0.2421 -0.0798  0.2108
    1WF      WF70022  18.858  23.864   0.942  0.0749  0.2855 -0.2747
    1WF      WF70023   8.369  16.885   8.032  0.0206 -0.0076  0.0068
    1WF      WF70024   6.949  16.275   8.850 -0.0472  0.2271  0.2295
    1WF      WF70025   2.073  18.257   8.402 -0.2378  0.0890 -0.0594
    1WF      WF70026  29.163   8.672   0.978  0.1975  0.1607  0.0276
    1WF      WF70027  22.333   1.689   7.689 -0.2206 -0.0925  0.1173
    1WF      WF70028  22.751   6.649   1.966 -0.2947 -0.1187  0.0007
    1WF      WF70029  24.816  21.358   0.959  0.1686 -0.2351 -0.1611
    1WF      WF70030  11.523  20.233   0.855  0.3271 -0.1379 -0.2601
    1WF      WF70031  27.948  12.787   6.873  0.1176  0.0916 -0.1914
    1WF      WF70032  23.336  16.488   8.864 -0.2642  0.1552  0.1044
    1WF      WF70033  14.226   4.598   0.825  0.2586  0.0745  0.1273
    1WF      WF70034  24.735  29.440   7.573  0.2325  0.1283  0.2420
    1WF      WF70035  27.134  16.594   0.795  0.2469 -0.1913  0.2226
    1WF      WF70036   7.437   7.048   7.749  0.2456 -0.0257 -0.2227
    1WF      WF70037  29.871  11.178   2.556 -0.3882 -0.1422 -0.1103
    1WF      WF70038   2.733  29.551   2.680 -0.2201 -0.1184  0.0740
    1WF      WF70039  24.353  13.977   6.827  0.1097  0.2691 -0.3337
    1WF      WF70040  25.761  25.325   0.838  0.1334 -0.0983 -0.5215
    1WF      WF70041  25.198   7.291   8.071  0.1588  0.0247  0.0119
    1WF      WF70042   2.124  23.565   1.588  0.0949  0.1195 -0.2941
    1WF      WF70043   5.629  14.652   1.008  0.0134 -0.0493  0.2473
    1WF      WF70044  15.894  14.124   6.695 -0.1292  0.0293  0.1915
    1WF      WF70045  24.622  22.613   1.296  0.1834  0.2933  0.0793
    1WF      WF70046  19.359  22.321   9.149  0.0586  0.2430  0.3407
    1WF      WF70047  26.675   0.194   6.748  0.2158 -0.0067  0.2422
    1WF      WF70048   2.485   1.039   1.726  0.4154 -0.2196  0.0392
    1WF      WF70049   3.640   2.027   7.774  0.0431  0.0074  0.1271
    1WF      WF70050  16.156  22.998   9.260  0.1146 -0.0711  0.0156
    1WF      WF70051   6.151  18.578   9.106 -0.0156 -0.3012  0.0307
    1WF      WF70052  19.906  10.201   1.861  0.0840 -0.2865 -0.2411
    1WF      WF70053  25.178  17.406   7.180  0.3298 -0.1671 -0.2045
    1WF      WF70054   5.234   4.867   8.365  0.2205 -0.2643  0.0375
    1WF      WF70055   3.822  15.271   0.364 -0.2891  0.0831  0.2344
    1WF      WF70056  28.249  19.425   9.142  0.1057  0.0987  0.0379
    1WF      WF70057  15.442   3.157   8.857  0.2147  0.2213  0.0703
    1WF      WF70058  14.392  12.155   1.824 -0.1220  0.3273  0.0147
    1WF      WF70059  16.464  12.671   9.141 -0.1464  0.1986  0.2277
    1WF      WF70060  20.121   1.750   8.913  0.2649  0.0416 -0.2457
    1WF      WF70061  26.487  28.103   2.903 -0.1643 -0.0270 -0.0431
    1WF      WF70062   8.833  22.431   8.625  0.1746 -0.4220 -0.0363
    1WF      WF70063  14.304  28.920   6.657 -0.4275  0.1494 -0.4117
    1WF      WF70064  15.773   4.446   8.843 -0.1092 -0.0999 -0.0641
    1WF      WF70065  20.903  22.414   7.333 -0.2277  0.0117  0.1741
    1WF      WF70066  14.822   5.364   3.019  0.0428 -0.0539  0.1635
    1WF      WF70067  25.674  25.295   2.535 -0.0727  0.1099  0.0312
    1WF      WF70068  11.663  25.839   8.583  0.0962 -0.0618  0.2628
    1WF      WF70069  29.574   4.606   7.939 -0.1814 -0.0159  0.1197
    1WF      WF70070  21.105  25.147   8.639  0.0747 -0.0278  0.1397
    1WF      WF70071  29.053   6.663   2.773  0.0361 -0.1363 -0.2938
    1WF      WF70072  13.744   4.481   2.500  0.1524 -0.0816  0.1997
    1WF      WF70073  17.524   5.604   2.396 -0.2664 -0.1548  0.0828
    1WF      WF70074  27.578  25.982   2.382 -0.0772  0.0915  0.0602
    1WF      WF70075  13.332  28.612   9.341  0.0515  0.1762 -0.0426
    1WF      WF70076  29.329   7.598   2.906  0.1166  0.1955  0.0033
    1WF      WF70077   0.231   1.309   8.249  0.3160  0.0866  0.0003
    1WF      WF70078  18.782  14.392   7.667  0.1676  0.1589  0.2196
    1WF      WF70079  13.160  23.047   0.297  0.0657  0.0206  0.2409
    1WF      WF70080  26.595  25.125   5.972  0.2755 -0.0174 -0.1433
    1WF      WF70081  29.025  27.792   1.670  0.3123 -0.0428 -0.3070
    1WF      WF70082  17.303  30.114   0.415 -0.0848 -0.1635  0.2371
    1WF      WF70083  10.434   0.110   3.700 -0.2465 -0.0208  0.1224
    1WF      WF70084  22.418  18.593   1.051  0.0329  0.1755  0.0312
    1WF      WF70085  22.508   5.143   0.875 -0.0035 -0.1591  0.1237
    1WF      WF70086   8.709  16.673   7.750 -0.1821 -0.1649  0.0054
    1WF      WF70087  29.839  29.162   9.020 -0.1331  0.0904  0.0349
    1WF      WF70088  24.438  26.091   0.804 -0.2119 -0.0905 -0.0343
    1WF      WF70089   5.106   3.372   8.927  0.1691 -0.0100  0.0673
    1WF      WF70090   5.218   5.577   0.456  0.1585  0.1029 -0.0084
    1WF      WF70091   7.506   7.123   0.221  0.2010  0.1700 -0.0863
    1WF      WF70092  20.083   7.895   8.432 -0.0385 -0.0968  0.2298
    1WF      WF70093   5.178  20.288   8.222 -0.0677  0.1625 -0.0529
    1WF      WF70094  21.806  10.818   6.687  0.1274  0.1080 -0.2522
    1WF      WF70095  18.319  13.013   8.166  0.0741 -0.1303 -0.0275
    1WF      WF70096   2.454  21.178   6.536  0.2941 -0.4088  0.3172
    1WF      WF70097  13.836  24.512   1.820  0.2651 -0.3274  0.1499
    1WF      WF70098  19.820  25.438   7.257 -0.0331  0.2605  0.1865
    1WF      WF70099  24.303   3.462   0.579 -0.2555 -0.0184  0.1070
    1WF      WF70100  15.196  23.942   8.211 -0.2319  0.0458 -0.2875
    1WF      WF70101  22.986  23.725   1.071  0.0853 -0.1482  0.1250
    1WF      WF70102  23.874   6.774   6.464 -0.0094 -0.3122 -0.3455
    1WF      WF70103  19.729  25.266   0.297  0.1338  0.1839  0.3390
    1WF      WF70104  27.014  24.314   8.900  0.3297  0.1216 -0.1299
    1WF      WF70105  15.943  29.611   8.707 -0.0136 -0.1547  0.0028
    1WF      WF70106  15.993   8.409   8.831  0.1477  0.0045 -0.0207
    1WF      WF70107   3.005   8.805   8.074  0.0982 -0.0986  0.1597
    1WF      WF70108  22.505  13.419   1.687  0.0184 -0.2747 -0.0415
    1WF      WF70109  19.761  17.662   0.832 -0.3816  0.1646  0.0114
    1WF      WF70110  20.284  29.762   8.278 -0.1150 -0.2340  0.2720
    1WF      WF70111  13.769  13.247   0.379  0.1115 -0.2747 -0.3124
    1WF      WF70112   7.674   6.932   1.877 -0.3179  0.0976  0.2888
    1WF      WF70113   8.085   5.535   8.887 -0.1127  0.0394  0.0057
    1WF      WF70114   3.184  19.479   7.782 -0.2735  0.3034 -0.1767
    1WF      WF70115   9.459  13.251   0.491 -0.1675  0.1320 -0.5163
    1WF      WF70116   0.077  12.978   5.869  0.1467 -0.1079 -0.1759
    1WF      WF70117   6.316  19.746   0.780  0.3602  0.1542 -0.0553
    1WF      WF70118  11.075  10.669   0.381  0.4915  0.1151 -0.0714
    1WF      WF70119  22.409  11.431   1.073  0.2075  0.0883  0.1267
    1WF      WF70120  23.195   8.612   0.125 -0.0685 -0.1972  0.0549
    1WF      WF70121  14.634   6.978   8.603 -0.2711  0.3240 -0.0321
    1WF      WF70122  11.207  21.607   9.244  0.2484 -0.0117  0.1170
    1WF      WF70123   9.023   8.609   8.978  0.0545 -0.1162 -0.0686
    1WF      WF70124  21.557   5.963   3.701  0.2723 -0.0176 -0.0176
    1WF      WF70125  22.899  18.771   2.453 -0.4079 -0.0832 -0.5054
    1WF      WF70126   8.682  11.511   9.091 -0.0197  0.0575 -0.1909
    1WF      WF70127  12.678   1.241   2.435  0.1070 -0.0934 -0.1885
    1WF      WF70128   7.798  25.335   7.986  0.3372 -0.0848 -0.0102
    1WF      WF70129   8.465  26.070   7.895  0.0132 -0.0007  0.0163
    1WF      WF70130  13.694  25.699   8.484  0.2194  0.1402 -0.0865
    1WF      WF70131  24.906  16.957   7.149 -0.1760  0.1613  0.3372
    1WF      WF70132   8.593  20.929   7.916 -0.0932 -0.1498  0.0275
    1WF      WF70133  16.346  20.361   8.616  0.0788 -0.0372 -0.0488
    1WF      WF70134  24.099  23.507   5.981  0.4091 -0.1645 -0.1049
    1WF      WF70135   4.767   0.565   0.262 -0.2089  0.1365  0.1257
    1WF      WF70136   7.727  15.567   0.689 -0.0125  0.2408  0.0449
    1WF      WF70137  18.252   2.624   2.336  0.1276  0.1971  0.2485
    1WF      WF70138   1.372  30.148   7.394 -0.0104  0.0119  0.1125
    1WF      WF70139  13.220   9.945   9.311 -0.1754  0.0453  0.2555
    1WF      WF70140  22.923  16.434   9.142 -0.3242 -0.2278 -0.1003
    1WF      WF70141  16.859  17.717   1.045  0.0065 -0.2717 -0.4263
    1WF      WF70142  19.855  21.953   6.560 -0.1430 -0.0376 -0.1454
    1WF      WF70143   7.894   2.833   2.211  0.1627 -0.0641  0.3141
    1WF      WF70144  15.099   9.834   1.538  0.0557  0.1554 -0.2302
    1WF      WF70145  18.176  17.879   9.363  0.0288 -0.1309  0.0576
    1WF      WF70146  23.094  18.042   7.601  0.0843  0.1301  0.0532
    1WF      WF70147  10.837  29.995   1.323  0.0801  0.0118 -0.1318
    1WF      WF70148   6.063  27.926   7.123  0.0030 -0.0268 -0.0357
    1WF      WF70149  14.592  17.596   8.050  0.2248  0.1051 -0.2155
    1WF      WF70150  23.433  14.070   7.725 -0.0027  0.0509  0.0248
    1WF      WF70151  19.407   1.947   8.239 -0.0858  0.0216  0.2553
    1WF      WF70152  10.466   8.771   0.361  0.2241  0.3913 -0.1627
    1WF      WF70153  12.885   0.615   3.880  0.0520 -0.0824 -0.2903
    1WF      WF70154  26.804   4.404   7.510  0.1997 -0.0705  0.0463
    1WF      WF70155   8.893  24.044   7.392 -0.0223 -0.1350 -0.2120
    1WF      WF70156  20.671   7.287   2.332  0.1944  0.1400 -0.2591
    1WF      WF70157  20.348  18.145   8.684  0.0476 -0.1157 -0.0804
    1WF      WF70158  18.371   0.154   0.522 -0.2363 -0.3058 -0.1065
    1WF      WF70159   5.757  24.646   7.535 -0.1036  0.3265  0.0988
    1WF      WF70160  28.750  22.375   6.425 -0.0896  0.0316 -0.1995
    1WF      WF70161  28.718   8.479   0.973 -0.1137 -0.1560 -0.0851
    1WF      WF70162   4.072  23.014   5.857  0.2769 -0.3002 -0.4133
    1WF      WF70163  11.474   1.322   8.197  0.0838  0.2533 -0.0372
    1WF      WF70164   9.848  15.514   0.868  0.3239  0.0373 -0.0410
    1WF      WF70165   6.581   1.977   1.483  0.3675  0.0281 -0.1312
    1WF      WF70166  18.052   8.784   0.996 -0.0659 -0.3573  0.0587
    1WF      WF70167  23.679  22.471   0.639 -0.0689 -0.2453 -0.0654
    1WF      WF70168  16.016  20.950   8.521  0.2127  0.2600  0.3260
    1WF      WF70169  27.749  27.604   0.825 -0.0720 -0.1299  0.1094
    1WF      WF70170   8.770  14.476   2.966 -0.0190 -0.3388  0.0984
    1WF      WF70171  12.410   0.931   1.084 -0.0214 -0.0946 -0.0511
    1WF      WF70172   7.807  10.076   1.850 -0.1555 -0.1564 -0.0090
    1WF      WF70173  23.531  25.325   6.777 -0.1901  0.0734  0.0486
    1WF      WF70174   1.213  12.819   7.798 -0.2194  0.4303 -0.2376
    1WF      WF70175   6.532  13.051   9.195  0.2229 -0.1402  0.4290
    1WF      WF70176   3.075  11.712   1.100  0.1506  0.1795 -0.1496
    1WF      WF70177   6.471   0.786   8.622 -0.1666 -0.1206 -0.4859
    1WF      WF70178   0.464   5.601   2.612  0.2062  0.1460 -0.1883
    1WF      WF70179  28.356  22.115   6.566  0.1800 -0.0805 -0.0749
    1WF      WF70180  24.851  24.582   8.365  0.1358 -0.0012 -0.0426
    1WF      WF70181  21.815  23.150   9.139 -0.0234 -0.0703  0.1852
    1WF      WF70182  17.870  17.323   2.367 -0.2294 -0.0008  0.0340
    1WF      WF70183  19.740  12.709   0.818  0.0463 -0.2022  0.1623
    1WF      WF70184   0.941   0.108   6.955 -0.2610  0.3377  0.1332
    1WF      WF70185  12.185  29.575   7.991 -0.0609  0.1418  0.1693
    1WF      WF70186  20.576  11.261   8.171  0.1042 -0.1257 -0.3203
    1WF      WF70187  27.302  23.384   7.999  0.0591  0.2725 -0.2109
    1WF      WF70188  22.578  24.719   8.742 -0.1037  0.0534  0.0948
    1WF      WF70189   6.922  28.877   1.181 -0.1530  0.1504 -0.0342
    1WF      WF70190  28.835  18.042   9.248  0.0396  0.0019 -0.0654
    1WF      WF70191  22.168   0.852   0.195  0.0929 -0.1379  0.0180
    1WF      WF70192  24.832  25.772   0.931 -0.0556 -0.1600  0.1136
    1WF      WF70193   0.686  29.752   0.683 -0.1048 -0.0475  0.5416
    1WF      WF70194  17.364  27.645   8.544  0.2122 -0.2660  0.0829
    1WF      WF70195  22.508  20.416   9.208 -0.1479  0.0250 -0.0549
    1WF      WF70196   8.698  28.400   8.747 -0.2362 -0.3430 -0.2027
    1WF      WF70197   5.298   5.511   6.783  0.1569  0.1434  0.2606
    1WF      WF70198   1.918   8.408   8.569 -0.1631 -0.0024  0.1167
    1WF      WF70199  22.785   8.761   9.283 -0.0654  0.0560  0.1922
    1WF      WF70200  10.118  29.116   1.811  0.0908  0.1121  0.3518
    1WF      WF70201  24.603  26.241   1.261 -0.0262 -0.3083 -0.0685
    1WF      WF70202   3.737  18.418   8.181 -0.0795  0.0581  0.0003
    1WF      WF70203  13.498   1.693   2.112 -0.1494  0.3850 -0.0766
    1WF      WF70204   1.837   2.878   9.003  0.0343 -0.2769  0.0272
    1WF      WF70205   5.614   2.204   1.024  0.0787  0.1799 -0.0615
    1WF      WF70206   2.353  11.971   7.632  0.2388  0.2056 -0.0666
    1WF      WF70207   1.955  19.268   9.028 -0.0192  0.2000 -0.0402
    1WF      WF70208  21.409  20.784   1.069  0.2543 -0.1861 -0.2499
    1WF      WF70209  28.322  15.509   1.761  0.1120 -0.1441 -0.1438
    1WF      WF70210  23.912  28.100   0.535  0.2297 -0.0121  0.1541
    1WF      WF70211   7.981  16.091   0.807  0.2481 -0.0017  0.0981
    1WF      WF70212   5.803  28.061   7.547  0.0266  0.0226 -0.1065
    1WF      WF70213  22.841  24.953   2.468 -0.0094 -0.1342 -0.0264
    1WF      WF70214  14.778   2.574   0.947  0.3744  0.0027 -0.0890
    1WF      WF70215   4.317  13.998   1.560 -0.0615  0.0556 -0.0230
    1WF      WF70216  10.993   4.969   3.583  0.2668 -0.0624  0.1167
    1WF      WF70217  27.312  19.232   0.104  0.1781 -0.1267 -0.2252
    1WF      WF70218   9.526  21.310   0.675  0.1741 -0.3107  0.0606
    1WF      WF70219  26.984  22.096   8.675 -0.1630 -0.0310 -0.0845
    1WF      WF70220  20.460  17.340   0.077 -0.0236 -0.1572 -0.0615
    1WF      WF70221  25.601   2.104   6.930 -0.1930  0.0074  0.0296
    1WF      WF70222  26.251   1.875   2.172 -0.0405 -0.1707 -0.0676
    1WF      WF70223   4.486  22.767   7.676 -0.0069  0.4265  0.3404
    1WF      WF70224   5.894  15.698   2.928  0.2014  0.1573 -0.0361
    1WF      WF70225   7.607  15.347   0.279 -0.0493  0.0342  0.0082
    1WF      WF70226  10.791  21.775   1.793 -0.1701  0.1404 -0.1504
    1WF      WF70227  12.779  29.648   0.516 -0.2127  0.1144 -0.2552
    1WF      WF70228  25.156  14.986   7.538 -0.3455 -0.0732  0.0573
    1WF      WF70229   0.344   4.878   1.054  0.0150  0.0865  0.0170
    1WF      WF70230  18.408   0.295   8.445  0.2653 -0.1772 -0.2623
    1WF      WF70231   1.949   4.388   9.099  0.1146 -0.0677 -0.1248
    1WF      WF70232  22.151  18.184   0.847  0.1215  0.0494 -0.0066
    1WF      WF70233  13.573  28.138   2.357 -0.5570  0.0627  0.0062
    1WF      WF70234   6.891  29.498   8.300  0.0907 -0.0936 -0.0197
    1WF      WF70235  22.835  11.187   1.214  0.5119 -0.0982 -0.0597
    1WF      WF70236   7.964  13.925   0.109 -0.1173 -0.3739 -0.0270
    1WF      WF70237   7.617   1.148   3.752 -0.1057 -0.1353  0.1132
    1WF      WF70238   6.964   3.302   0.303  0.4021  0.0787 -0.0921
    1WF      WF70239  11.846  27.968   1.012  0.1343  0.1337 -0.4580
    1WF      WF70240   0.409   1.219   1.669  0.1015  0.0535  0.0816
    1WF      WF70241  11.944  24.694   0.425  0.0635  0.1834 -0.2519
    1WF      WF70242   2.976  11.426   8.883  0.1953 -0.1604 -0.0379
    1WF      WF70243  23.193  21.910   2.318 -0.1534 -0.0016 -0.2585
    1WF      WF70244  25.504  15.098   6.415 -0.0965  0.2356  0.0705
    1WF      WF70245  13.462  19.228   9.143  0.1287 -0.1372  0.2311
    1WF      WF70246  22.315  22.842   7.726  0.1198 -0.0987 -0.0229
    1WF      WF70247  28.811  19.798   0.442 -0.1256 -0.0655 -0.1200
    1WF      WF70248  10.184  11.056   2.469  0.2647 -0.0688  0.2111
    1WF      WF70249   4.240   1.448   1.983 -0.1742 -0.3086  0.0757
    1WF      WF70250  18.933  29.546   1.618 -0.1579 -0.1281 -0.1018
    1WF      WF70251  13.815  27.394   1.253 -0.0508 -0.4013  0.0930
    1WF      WF70252   6.406   1.692   0.255  0.1075  0.3862  0.0474
    1WF      WF70253   5.729  11.284   0.045  0.1631 -0.0248 -0.0779
    1WF      WF70254   8.904  25.713   0.824  0.1844 -0.1300 -0.2072
    1WF      WF70255   5.062   9.392   7.935  0.0186 -0.0956 -0.0068
    1WF      WF70256   6.043   3.998   7.286  0.0209 -0.2913 -0.0586
    1WF      WF70257  24.164  12.349   8.599  0.1233 -0.2233 -0.1351
    1WF      WF70258   3.075  16.651   7.740 -0.0462 -0.0810 -0.0879
    1WF      WF70259   7.026   6.312   0.907 -0.1347  0.0064  0.0941
    1WF      WF70260  27.836   8.062   0.188 -0.0658 -0.1454 -0.0391
    1WF      WF70261  27.088  21.553   0.684  0.1804  0.0309 -0.2098
    1WF      WF70262  13.304   5.434   1.514 -0.2403  0.0689  0.2832
    1WF      WF70263  28.160   8.211   7.235  0.0036  0.3173  0.1775
    1WF      WF70264  22.150  24.129   7.576  0.3247  0.0197 -0.0059
    1WF      WF70265  25.857  11.086   7.206  0.2092  0.1279  0.2284
    1WF      WF70266  20.246  18.711   1.407  0.0175  0.3399  0.2716
    1WF      WF70267  13.061   7.131   9.245  0.3209 -0.0011  0.0102
    1WF      WF70268  13.636  23.551   8.685 -0.0497 -0.0415 -0.0994
    1WF      WF70269   0.896   6.656   8.282 -0.3097 -0.1045  0.0370
    1WF      WF70270   0.467   6.359   1.163 -0.1512  0.2221  0.2984
    1WF      WF70271   1.010  29.423   0.887 -0.0019  0.1987 -0.0039
    1WF      WF70272  18.426  26.071   2.950 -0.0916 -0.3569  0.1460
    1WF      WF70273   0.336   1.412   8.758 -0.0205  0.1348  0.2736
    1WF      WF70274  19.346  12.996   0.732  0.3505  0.3727  0.2604
    1WF      WF70275   6.404  28.751   1.376 -0.1606  0.0060 -0.0018
    1WF      WF70276   4.030  29.588   0.051 -0.1304  0.1390  0.0510
    1WF      WF70277  14.679  25.565   2.095 -0.1517  0.0573 -0.0223
    1WF      WF70278  21.630  10.552   7.745  0.1669 -0.3417 -0.1619
    1WF      WF70279  23.816  26.881   0.400  0.1083 -0.2621  0.1618
    1WF      WF70280  21.509  14.967   6.627 -0.1991  0.0704 -0.1211
    1WF      WF70281  25.935  13.468   9.017  0.1656  0.0799  0.1185
    1WF      WF70282   0.328  28.533   6.987  0.0450  0.2903  0.1231
    1WF      WF70283  23.714   4.165   6.815 -0.2130  0.2110 -0.0841
    1WF      WF70284   2.615  16.723   7.912  0.0067  0.0780 -0.1331
    1WF      WF70285   7.014  19.001   0.569 -0.0379  0.0913  0.1171
    1WF      WF70286  25.963   8.982   9.058  0.0251 -0.1385 -0.2151
    1WF      WF70287  18.404  12.148   9.022  0.0722  0.0562 -0.0023
    1WF      WF70288   8.710  25.694   8.175 -0.0819 -0.0786 -0.0345
    1WF      WF70289  12.582  29.197   0.502  0.3965 -0.1225  0.0537
    1WF      WF70290   7.980   6.614   1.600  0.3811 -0.0233  0.0692
    1WF      WF70291   7.303  18.532   6.853 -0.2046 -0.3412 -0.1435
    1WF      WF70292  25.108  15.306   8.003  0.1840  0.2705  0.3634
    1WF      WF70293  26.531  26.146   8.795  0.0302  0.0046 -0.2738
    1WF      WF70294   5.126  19.962   1.408  0.2529 -0.0795  0.0772
    1WF      WF70295  19.573   7.480   6.634  0.0714 -0.0191  0.0620
    1WF      WF70296  26.897  29.929   1.708 -0.2560 -0.0862  0.1509
    1WF      WF70297   1.107  13.572   6.857  0.0623  0.2014 -0.0073
    1WF      WF70298  25.368   1.610   7.218 -0.1152 -0.0041 -0.1310
    1WF      WF70299  17.204  26.495   1.746  0.1493  0.2087  0.2507
    1WF      WF70300  14.950  24.775   0.883 -0.0004  0.0675  0.1324
    1WF      WF70301   6.285   3.109   8.014  0.0309  0.0825  0.1059
    1WF      WF70302  19.050   9.648   8.683 -0.0544  0.0798 -0.1972
    1WF      WF70303   0.563  28.774   1.993  0.1734  0.2421 -0.0820
    1WF      WF70304   9.276  17.616   0.187 -0.1743 -0.2630 -0.0513
    1WF      WF70305   4.803   2.961   0.742  0.0575  0.1197  0.3294
    1WF      WF70306  16.558   8.820   6.791 -0.0401 -0.2310  0.1632
    1WF      WF70307  12.352  20.019   0.764  0.1673  0.1491 -0.1361
    1WF      WF70308  29.556  26.532   0.885 -0.4107 -0.0949 -0.2689
    1WF      WF70309  13.558   9.702   0.617 -0.2877  0.1264  0.3272
    1WF      WF70310   8.978  11.734   0.012  0.2006  0.3734 -0.1342
    1WF      WF70311  27.177  15.500   0.355 -0.1217 -0.1649 -0.1897
    1WF      WF70312  22.501   9.148   8.132 -0.1865  0.1114 -0.1653
    1WF      WF70313   2.312  10.203   9.054  0.3300  0.1588  0.0349
    1WF      WF70314  17.372   3.133   1.530 -0.0109  0.1742 -0.1153
    1WF      WF70315  12.085   6.371   2.389 -0.2664 -0.1797 -0.1161
    1WF      WF70316   1.552  16.657   8.942  0.0767 -0.0069 -0.0042
    1WF      WF70317   7.042  16.910   0.565 -0.1084  0.0522  0.1743
    1WF      WF70318  15.887  29.869   2.746  0.2570  0.3037 -0.0505
    1WF      WF70319   3.706   9.846   6.827  0.0771  0.0358  0.0129
    1WF      WF70320  25.519   5.867   1.120 -0.2280  0.0801 -0.1069
    1WF      WF70321   4.674   2.559   1.144  0.4146 -0.3913  0.1017
    1WF      WF70322  14.461  11.541   0.157  0.2918 -0.1122  0.0702
    1WF      WF70323  13.844  12.640   8.944  0.0221 -0.0800  0.0607
    1WF      WF70324   4.430  27.947   8.652  0.0599 -0.3219  0.1004
    1WF      WF70325  23.581   1.519   0.156  0.0351  0.3257  0.0964
    1WF      WF70326  17.444  14.425   6.467 -0.0130  0.1651 -0.1624
    1WF      WF70327   1.427   3.759   2.051  0.3298 -0.0088 -0.0579
    1WF      WF70328  25.711  24.158   0.922 -0.1878  0.3677 -0.1142
    1WF      WF70329  26.835  29.459   1.624 -0.0914  0.0164  0.2985
    1WF      WF70330  27.470  20.186   6.255  0.2396  0.2052 -0.0945
    1WF      WF70331   6.037  19.493   6.086  0.0129  0.3227  0.1790
    1WF      WF70332  28.879  27.862   9.077 -0.2876 -0.0544  0.2764
    1WF      WF70333   9.850   1.911   2.174  0.2086  0.1387 -0.0287
    1WF      WF70334  19.523  28.246   8.851 -0.0222  0.4399  0.1106
    1WF      WF70335   2.874  21.654   1.176  0.1255 -0.3820 -0.2083
    1WF      WF70336  23.051  22.624   1.974  0.1417 -0.0500  0.0317
    1WF      WF70337  25.359  16.108   7.113  0.0191  0.0058  0.0093
    1WF      WF70338  12.838  28.414   1.272  0.0950 -0.1193 -0.1251
    1WF      WF70339   4.418   4.609   1.952 -0.4667 -0.0350  0.1601
    1WF      WF70340  11.567  25.271   6.051  0.1212  0.1715  0.0771
    1WF      WF70341  22.317   0.698   8.887 -0.0462  0.3476 -0.1049
    1WF      WF70342  29.582  22.602   8.873 -0.0709 -0.1305 -0.1457
    1WF      WF70343  27.724  17.170   6.166 -0.0419 -0.0594  0.1844
    1WF      WF70344  14.014  29.941   1.009 -0.1357  0.0958  0.0748
    1WF      WF70345  12.014   6.620   2.882  0.2373 -0.0097 -0.1919
    1WF      WF70346  14.820  14.402   2.567  0.0185 -0.0299 -0.1318
    1WF      WF70347   7.936  25.000   1.238 -0.3002  0.2544  0.1354
    1WF      WF70348  18.842  14.770   8.978  0.0160 -0.1714  0.1999
    1WF      WF70349   2.263   9.990   8.602 -0.1337  0.1392  0.2071
    1WF      WF70350  27.321   4.395   7.729  0.3267  0.0224 -0.0574
    1WF      WF70351  17.312   8.389   1.478  0.0184  0.1987  0.0133
    1WF      WF70352  16.541   0.644   0.932 -0.1515 -0.0574 -0.1594
    1WF      WF70353  13.532  26.913   2.792 -0.0293 -0.1255  0.1065
    1WF      WF70354   8.964   0.468   1.530 -0.2418 -0.0165  0.2008
    1WF      WF70355  11.885   3.799   8.563  0.0342 -0.1686  0.0130
    1WF      WF70356   4.207  14.116   7.465  0.0326 -0.0822  0.0357
    1WF      WF70357  10.376   0.335   9.197  0.1349  0.0449 -0.2537
    1WF      WF70358  22.878  29.305   1.195  0.0599 -0.1251 -0.1315
    1WF      WF70359  14.891   4.885   9.039  0.1834 -0.1789  0.1643
    1WF      WF70360   7.430  13.374   2.334  0.1702 -0.1504  0.1839
    1WF      WF70361   2.795  14.193   8.563  0.2379 -0.0781 -0.0011
    1WF      WF70362  27.551  13.474   8.726  0.2054  0.2198 -0.3646
    1WF      WF70363  11.296   1.507   0.335 -0.2002  0.2124 -0.1193
    1WF      WF70364  26.035   7.102   7.771  0.2644 -0.1646 -0.2185
    1WF      WF70365  28.067   9.991   1.060 -0.1071  0.0763 -0.0861
    1WF      WF70366  29.216  18.324   9.106 -0.1661 -0.1286  0.0918
    1WF      WF70367  20.489  28.860   6.962 -0.0356  0.3126  0.2607
    1WF      WF70368   7.126  10.062   9.282  0.1565 -0.3683 -0.4810
    1WF      WF70369   6.049  22.856   8.848 -0.1919  0.2196 -0.1366
    1WF      WF70370   3.561  25.101   6.823 -0.1072  0.0247 -0.0177
    1WF      WF70371  10.270  14.214   8.450 -0.4243 -0.1407  0.0380
    1WF      WF70372   9.854  24.091   9.381 -0.1184  0.2815  0.1574
    1WF      WF70373  12.483  21.952   9.090  0.2705  0.1028  0.1032
    1WF      WF70374  21.624   2.383   7.944 -0.0805  0.1270 -0.1614
    1WF      WF70375   3.128  18.335   0.392  0.2764  0.0216  0.0341
    1WF      WF70376  12.104   3.588   0.824 -0.3049  0.2095  0.2707
    1WF      WF70377   6.200  24.667   6.995  0.0990  0.0180  0.2038
    1WF      WF70378  17.766  25.502   7.448  0.2653 -0.2253 -0.0214
    1WF      WF70379  13.479  24.174   1.285  0.0512 -0.0963  0.0508
    1WF      WF70380  12.486  24.194   1.901 -0.0420 -0.0668 -0.3654
    1WF      WF70381  15.372   4.689   8.984  0.1598 -0.1862  0.1768
    1WF      WF70382  21.371   9.847   8.904 -0.2078 -0.0372  0.1910
    1WF      WF70383  11.060  20.583   1.457  0.0461 -0.4311  0.0759
    1WF      WF70384   7.703  19.531   8.049  0.0578 -0.1056  0.1003
    1WF      WF70385  15.350  24.781   8.345  0.0176  0.1709  0.0153
    1WF      WF70386  21.100  20.848   0.586 -0.2051 -0.0060  0.1158
    1WF      WF70387   5.868   3.967   0.329  0.2549 -0.0148 -0.0449
    1WF      WF70388   8.100  13.050   1.438  0.1136 -0.0966  0.3872
    1WF      WF70389  29.615   4.640   2.732  0.2823  0.1359 -0.2926
    1WF      WF70390   4.538   8.823   9.321  0.1962  0.1992  0.0044
    1WF      WF70391  15.070  10.713   1.929  0.2312 -0.2674 -0.2195
    1WF      WF70392  17.096  23.490   8.503 -0.1226  0.2261  0.1150
    1WF      WF70393   3.100  29.480   6.470  0.1530 -0.2295  0.0492
    1WF      WF70394   3.221  30.138   0.505  0.0564  0.0473 -0.0811
    1WF      WF70395  15.647  26.030   9.153 -0.1072 -0.0056 -0.1163
    1WF      WF70396   5.517   7.238   0.497 -0.0210  0.0777  0.1361
    1WF      WF70397  16.221   4.705   7.830 -0.0719  0.0422 -0.3030
    1WF      WF70398   9.026   8.144   8.883 -0.0161  0.1236 -0.1693
    1WF      WF70399  25.350  17.176   7.567  0.0272  0.0544  0.0960
    1WF      WF70400  13.683  23.935   9.020  0.0133 -0.0722  0.1485
    1WF      WF70401  16.071  12.356   8.971  0.2546 -0.1862 -0.0219
    1WF      WF70402  15.884  10.592   0.463 -0.3067 -0.0756  0.0064
    1WF      WF70403   6.998  13.515   2.099 -0.0103  0.1508  0.1273
    1WF      WF70404  19.913  15.824   7.922  0.2471 -0.2538  0.0227
    1WF      WF70405  22.312  16.719   7.582 -0.5620 -0.2163  0.2865
    1WF      WF70406   6.972   4.163   1.576 -0.0687  0.0592  0.0316
    1WF      WF70407   2.033  17.026   1.292  0.1196  0.0099 -0.1394
    1WF      WF70408   7.541  13.877   2.581  0.0609  0.0488  0.1369
    1WF      WF70409  26.316  11.666   8.016  0.1824 -0.2871  0.2502
    1WF      WF70410  17.083  27.259   8.498  0.0340  0.0116  0.1908
    1WF      WF70411  22.510   7.329   7.937  0.0685  0.1156 -0.0458
    1WF      WF70412  23.198  16.644   6.956 -0.1590  0.0279 -0.0892
    1WF      WF70413  13.153  20.972   8.047 -0.1489  0.0681  0.1399
    1WF      WF70414  27.299   6.826   1.656  0.1102 -0.1012  0.2518
    1WF      WF70415  25.854  24.958   0.166  0.1024  0.3549 -0.0485
    1WF      WF70416   4.840  21.234   0.167 -0.1422  0.1330 -0.1643
    1WF      WF70417  16.347  27.576   1.220 -0.2905  0.2718 -0.3017
    1WF      WF70418   3.993  29.427   1.587  0.2542  0.0517 -0.0955
    1WF      WF70419  14.747  19.720   6.764 -0.1073 -0.2159 -0.1818
    1WF      WF70420  29.857   4.958   8.077 -0.1529 -0.1283  0.1170
    1WF      WF70421  22.486   2.234   1.538  0.2693 -0.2384  0.1719
    1WF      WF70422   7.040  12.484   1.449  0.4514  0.1163 -0.1138
    1WF      WF70423  24.898  19.452   7.383  0.2176 -0.2803 -0.0848
    1WF      WF70424   1.731  28.881   8.644  0.1028 -0.1319 -0.1599
    1WF      WF70425   2.857   8.573   1.126  0.2781 -0.4326 -0.3943
    1WF      WF70426  22.336   3.407   8.411 -0.2213  0.5395 -0.1506
    1WF      WF70427  20.611   5.932   1.907  0.0690  0.0975  0.3189
    1WF      WF70428  13.156  19.622   8.960 -0.1318  0.2005  0.0299
    1WF      WF70429  20.486  29.750   7.766  0.1869  0.1470 -0.1452
    1WF      WF70430  21.611  16.089   0.548 -0.0100 -0.1757  0.0080
    1WF      WF70431  15.384   1.221   0.858 -0.0840 -0.4755  0.0737
    1WF      WF70432  22.721  13.233   9.271 -0.1091 -0.3137 -0.0198
    1WF      WF70433   4.680  27.455   1.591  0.0761  0.2346  0.2217
    1WF      WF70434  18.029  15.926   8.839 -0.1303 -0.1068  0.0412
    1WF      WF70435  15.481  16.914   1.303  0.0908  0.0364 -0.2334
    1WF      WF70436  10.251   7.394   0.901  0.1319 -0.3460  0.0276
    1WF      WF70437  22.867  22.076   8.704  0.1792 -0.2728  0.1265
    1WF      WF70438  16.867  17.805   6.804  0.2145 -0.1377 -0.0551
    1WF      WF70439  11.745  28.683   0.854 -0.2486  0.0975  0.3464
    1WF      WF70440  18.568  26.671   8.626  0.0958  0.2663 -0.0688
    1WF      WF70441   2.720   9.060   7.756  0.3036 -0.1371 -0.1258
    1WF      WF70442   9.690  14.415   9.191  0.2328 -0.2289  0.1266
    1WF      WF70443  27.545  25.474   2.429 -0.1514 -0.2032  0.0738
    1WF      WF70444  13.890   7.290   1.294 -0.2457  0.2434  0.0486
    1WF      WF70445   5.738   5.600   0.242  0.0616 -0.0949  0.0662
    1WF      WF70446   7.427  21.534   7.737  0.1960  0.1156  0.2440
    1WF      WF70447  24.467   7.110   1.425  0.0508 -0.1594 -0.1900
    1WF      WF70448  29.628  22.469   8.384 -0.2564  0.1028  0.0107
    1WF      WF70449   9.471  23.009   0.289  0.0132  0.0914 -0.0715
    1WF      WF70450  14.409   2.404   7.116  0.0383 -0.2247  0.1022
    1WF      WF70451  14.130   7.781   1.752  0.2594  0.1687 -0.0799
    1WF      WF70452  17.581  23.927   0.952  0.0211  0.3042 -0.1041
    1WF      WF70453  22.143  20.947   7.863  0.3140 -0.0704  0.0036
    1WF      WF70454  21.336   6.198   1.285 -0.1996  0.1648 -0.0094
    1WF      WF70455   8.072   9.734   1.586  0.0656 -0.3335  0.0573
    1WF      WF70456  17.912  10.227   0.811 -0.2395  0.1129  0.1690
    1WF      WF70457  19.358  23.951   9.279 -0.0820 -0.2316 -0.0975
    1WF      WF70458  22.338  14.366   8.742 -0.0056 -0.1859  0.0929
    1WF      WF70459  15.373  28.775   1.010 -0.0427 -0.0709 -0.2098
    1WF      WF70460   6.608  13.991   0.861  0.0370  0.3304  0.1054
    1WF      WF70461   2.685  18.369   8.013  0.2473  0.3850 -0.0175
    1WF      WF70462   5.197  28.713   8.312 -0.0610  0.0766 -0.1179
    1WF      WF70463   2.995   6.813   2.120  0.1617 -0.1034 -0.2093
    1WF      WF70464   8.297  23.120   5.337  0.1404  0.0639 -0.1014
    1WF      WF70465  26.997  19.804   0.569  0.1343  0.0020 -0.1244
    1WF      WF70466   4.801  23.991   2.153 -0.0227 -0.1868  0.1025
    1WF      WF70467  21.901  13.441   8.016 -0.1659 -0.0690  0.0199
    1WF      WF70468  28.828  25.519   6.408  0.0885  0.2133  0.4446
    1WF      WF70469  29.510   8.428   0.572  0.2955 -0.0401  0.2551
    1WF      WF70470  16.849  28.732   6.810 -0.4438 -0.0748  0.3151
    1WF      WF70471   4.895   9.528   8.402 -0.1936 -0.1173 -0.1572
    1WF      WF70472  22.661  18.604   8.972 -0.3427  0.2869  0.4409
    1WF      WF70473   4.792   8.236   7.092  0.0993  0.1257  0.0721
    1WF      WF70474  24.195  13.692   1.021 -0.1008  0.1938  0.4042
    1WF      WF70475  17.494  23.875   6.634  0.1186 -0.0468 -0.1470
    1WF      WF70476  22.614  19.488   7.316 -0.2597  0.0590  0.3165
    1WF      WF70477  18.667   0.550   0.159 -0.1867  0.0131  0.0249
    1WF      WF70478  14.267   8.013   2.124 -0.2711  0.2816  0.3501
    1WF      WF70479   1.862   4.663   8.652  0.0130  0.0809  0.3041
    1WF      WF70480  12.660   2.520   0.124 -0.0814  0.1402 -0.2251
    1WF      WF70481  15.628  27.242   8.847  0.1562  0.0440 -0.2120
    1WF      WF70482   9.680   3.875   7.728  0.0181  0.1163 -0.2059
    1WF      WF70483  22.790  12.296   8.759  0.2919 -0.3121 -0.3503
    1WF      WF70484  22.328  24.910   9.148  0.3659  0.1483 -0.1649
    1WF      WF70485  18.430  23.727   1.138 -0.3353  0.1106 -0.1548
    1WF      WF70486   1.502  28.592   3.896 -0.4331  0.0958 -0.1949
    1WF      WF70487  21.194   4.435   8.869  0.2095  0.3595  0.3388
    1WF      WF70488   2.094   3.162   8.715  0.1604 -0.0227 -0.1844
    1WF      WF70489   7.210  29.147   1.447  0.3102 -0.2100 -0.1261
    1WF      WF70490   0.633  21.761   8.203  0.0561 -0.2356 -0.4289
    1WF      WF70491  18.588  10.111   0.060 -0.0316 -0.0611  0.0748
    1WF      WF70492   7.375  28.007   0.520 -0.1710  0.0658 -0.0740
    1WF      WF70493   0.873  26.681   1.336  0.0177  0.0040 -0.0353
    1WF      WF70494   3.751  12.673   0.565  0.1364  0.2819  0.3981
    1WF      WF70495  16.632  25.742   0.302 -0.2473 -0.0826  0.2761
    1WF      WF70496  18.689   8.847   0.215  0.0258 -0.1951  0.1123
    1WF      WF70497  25.588  22.081   7.994 -0.1230 -0.3764  0.0986
    1WF      WF70498  26.786   0.689   2.899  0.0209  0.0963 -0.2793
    1WF      WF70499  19.080  28.269   9.096  0.1166  0.0486 -0.2178
    1WF      WF70500  17.017  14.268   8.973  0.0588  0.0919 -0.2509
    1WF      WF70501  25.719  13.842   0.204 -0.0772  0.4365  0.0904
    1WF      WF70502   7.383  28.103   7.683 -0.0973  0.2164 -0.1845
    1WF      WF70503  20.727  26.552   7.332 -0.0748 -0.1292  0.2487
    1WF      WF70504  20.212  18.527   0.919 -0.2214  0.1651 -0.3509
    1WF      WF70505  23.652  27.322   3.231  0.2586  0.1288  0.1814
    1WF      WF70506  10.741   0.464   8.905  0.0629  0.1769  0.5768
    1WF      WF70507  23.730  28.517   1.320  0.0321 -0.2999 -0.0485
    1WF      WF70508  10.250  22.421   0.372  0.1688 -0.1124 -0.0138
    1WF      WF70509  22.387  14.850   8.727  0.0681 -0.0307 -0.0421
    1WF      WF70510   7.474  26.282   7.281 -0.0160 -0.0732  0.2617
    1WF      WF70511   2.888  16.509   6.893 -0.0369  0.0152 -0.0701
    1WF      WF70512   8.596   5.286   2.790 -0.1963 -0.1185  0.2826
    1WF      WF70513  29.147  13.361   0.257  0.0412 -0.0445  0.1315
    1WF      WF70514  20.147  17.345   0.564  0.1160  0.1412  0.2675
    1WF      WF70515   5.758  29.750   8.523 -0.0564 -0.1745  0.0641
    1WF      WF70516  28.133   4.095   8.089  0.0063 -0.2563 -0.0260
    1WF      WF70517  13.381  22.248   2.657  0.1882 -0.0713  0.0256
    1WF      WF70518  18.727  15.796   6.467  0.2455 -0.1906 -0.2415
    1WF      WF70519  24.068   5.220   0.899 -0.0302 -0.0191 -0.0745
    1WF      WF70520  29.021  11.304   5.485 -0.0514 -0.0892  0.0710
    1WF      WF70521   5.031  25.831   8.096  0.0585  0.2413 -0.2263
    1WF      WF70522  29.328   2.328   0.824  0.0559 -0.2146 -0.0039
    1WF      WF70523  27.102  14.844   7.185 -0.3677  0.0103 -0.0335
    1WF      WF70524  22.333  25.994   8.836  0.0654 -0.2587  0.0301
    1WF      WF70525  20.101  24.224   2.445  0.0075  0.2236  0.0770
    1WF      WF70526  21.797  26.356   0.480  0.0981 -0.2961  0.0255
    1WF      WF70527  29.359  24.146   8.086  0.0670  0.1377 -0.0525
    1WF      WF70528  30.013  27.934   2.576 -0.0163  0.2409 -0.0124
    1WF      WF70529   4.897  26.199   8.399 -0.0989  0.2173  0.1441
    1WF      WF70530   9.848  22.683   0.193 -0.1830  0.2461  0.1147
    1WF      WF70531  14.414   2.722   0.663  0.2675  0.0557  0.0616
    1WF      WF70532  26.178   8.397   1.139  0.3156  0.1378 -0.1195
    1WF      WF70533   6.257  26.009   8.212  0.2141  0.2387  0.0601
    1WF      WF70534   7.954  17.400   9.281  0.0405  0.0337 -0.1721
    1WF      WF70535   5.391   5.390   2.149 -0.1509  0.2798 -0.0697
    1WF      WF70536  22.640  19.570   7.879  0.0124  0.0908  0.1768
    1WF      WF70537   3.616  21.882   8.999  0.4411  0.0404 -0.0939
    1WF      WF70538  18.177   7.426   7.785  0.1841 -0.1204  0.0062
    1WF      WF70539  14.875  27.798   1.216  0.0313  0.2637 -0.2399
    1WF      WF70540   7.996   6.959   1.202  0.2088 -0.0567 -0.0648
    1WF      WF70541  25.808  30.063   8.305  0.0734 -0.0964  0.1418
    1WF      WF70542  10.613  21.581   8.579  0.2079  0.2330  0.1546
    1WF      WF70543  19.975  22.068   7.058 -0.1873 -0.2886 -0.2360
    1WF      WF70544  10.455  11.436   0.449  0.2434  0.3774 -0.1323
    1WF      WF70545   9.670   1.343   0.121  0.0020 -0.1409  0.0444
    1WF      WF70546   8.634  25.390   1.199  0.1569  0.1188  0.2229
    1WF      WF70547   4.786  20.165   8.608 -0.0070 -0.0344  0.1719
    1WF      WF70548  25.852   2.837   8.217  0.2813 -0.1335 -0.0609
    1WF      WF70549  11.231  11.686   7.151 -0.1993  0.1596 -0.1103
    1WF      WF70550  21.060  24.047   8.608 -0.1425 -0.0628 -0.0055
    1WF      WF70551   7.088  13.671   2.591  0.1533 -0.1268  0.1586
    1WF      WF70552  27.144  29.084   0.437  0.1295  0.2232  0.0132
    1WF      WF70553  29.425  14.099   8.755 -0.2535 -0.0458 -0.1968
    1WF      WF70554   4.007  22.871   7.622  0.1559  0.2695  0.1474
    1WF      WF70555   6.984  10.580   9.273  0.2210  0.1516 -0.1636
    1WF      WF70556  24.810  21.538   1.497 -0.1085  0.1945  0.0344
    1WF      WF70557  27.118  24.286   8.401  0.1268  0.0956  0.1731
    1WF      WF70558  25.872  14.915   0.569 -0.0620 -0.0084  0.2113
    1WF      WF70559  10.918   4.239   0.701  0.2238  0.0135  0.0429
    1WF      WF70560  13.145  10.675   8.600 -0.2684  0.0582 -0.0771
    1WF      WF70561  19.661  19.322   0.121  0.1267  0.1962  0.0002
    1WF      WF70562  19.368  28.879   0.490  0.0895 -0.0812  0.3574
    1WF      WF70563  17.783   0.943   2.463 -0.0858 -0.1126 -0.1373
    1WF      WF70564  16.228  27.143   1.057 -0.0885  0.2072  0.2896
    1WF      WF70565  16.292   8.728   0.192 -0.0671 -0.1968  0.0541
    1WF      WF70566  14.852   1.136   0.828 -0.1180 -0.1783  0.0362
    1WF      WF70567   4.225   6.133   1.997  0.2991  0.2511 -0.2469
    1WF      WF70568  19.031   2.453   0.987 -0.0567 -0.1121  0.2003
    1WF      WF70569  24.835  17.932   0.509 -0.1876  0.1543  0.1312
    1WF      WF70570  10.685  17.273   0.347  0.1479  0.1041 -0.1267
    1WF      WF70571   9.443  26.806   1.360 -0.4640 -0.1167 -0.1698
    1WF      WF70572  17.450  11.226   0.552  0.0279  0.0263  0.1303
    1WF      WF70573  14.534  27.262   7.913  0.1492 -0.0652  0.0519
    1WF      WF70574  23.002  29.261   8.660 -0.2720 -0.2762  0.3793
    1WF      WF70575  14.747   7.922   2.327  0.0867  0.0740 -0.1038
    1WF      WF70576  20.189   4.898   1.935 -0.1037 -0.3675  0.4732
    1WF      WF70577  14.373  28.245   2.736  0.1326  0.1063  0.0804
    1WF      WF70578  24.682  10.581   7.268  0.0301  0.1918 -0.1287
    1WF      WF70579   3.598  14.568   1.098 -0.1306 -0.1562 -0.1342
    1WF      WF70580   4.651  11.901   7.681 -0.2395  0.1048  0.0029
    1WF      WF70581  14.152  29.573   1.369 -0.2214 -0.3995  0.1134
    1WF      WF70582   6.408  17.898   0.654  0.2197  0.1790  0.2310
    1WF      WF70583  28.757  16.141   7.727  0.0661  0.2014 -0.1880
    1WF      WF70584  17.699  24.244   8.559  0.2006  0.1707  0.0363
    1WF      WF70585   2.993  12.266   6.934  0.0563 -0.0211  0.2639
    1WF      WF70586  15.395   8.658   3.340 -0.2753 -0.0523  0.0230
    1WF      WF70587  23.934   3.086   2.168  0.1654 -0.1101  0.3548
    1WF      WF70588  27.912  26.974   0.144 -0.0024 -0.1841  0.2181
    1WF      WF70589   2.293   6.495   1.657 -0.0594  0.4205 -0.2842
    1WF      WF70590  27.558   1.295   8.949  0.1493  0.2216 -0.1796
    1WF      WF70591   3.188  25.475   6.868 -0.0268 -0.4002  0.1616
    1WF      WF70592  15.559  15.849   0.694 -0.0043 -0.0289  0.3417
    1WF      WF70593   4.346  12.121   8.058  0.0101 -0.3069 -0.0953
    1WF      WF70594  16.069   5.121   9.384  0.0024 -0.2371 -0.0486
    1WF      WF70595  27.053   0.603   8.127  0.0071  0.0223 -0.2557
    1WF      WF70596   5.323  15.440   8.281  0.0868 -0.2650 -0.1436
    1WF      WF70597  27.243   6.966   8.276  0.0106 -0.2653 -0.2307
    1WF      WF70598  18.739  10.201   0.538  0.0727 -0.0671  0.1565
    1WF      WF70599  17.540  27.374   1.544 -0.0922 -0.0267  0.2028
    1WF      WF70600  19.079   4.821   7.287 -0.0943 -0.1376 -0.2174
    1WF      WF70601   5.531   7.178   1.055  0.0214  0.4221  0.2382
    1WF      WF70602  13.583   1.739   9.028 -0.1795 -0.1136 -0.1923
    1WF      WF70603   5.981  17.554   0.598 -0.0483 -0.1310 -0.0578
    1WF      WF70604  17.007  11.003   0.768 -0.0638  0.1143 -0.1126
    1WF      WF70605   6.809  24.139   7.414 -0.4334 -0.2655 -0.0792
    1WF      WF70606   0.454  25.788   7.711  0.0074 -0.2407  0.0723
    1WF      WF70607   3.633  29.627   0.415 -0.0385 -0.1512  0.0864
    1WF      WF70608   9.352  12.714   8.360  0.0289 -0.3898 -0.0900
    1WF      WF70609  24.203   3.022   0.122 -0.2440  0.0103  0.2667
    1WF      WF70610   8.894  22.018   8.161  0.1265  0.0520 -0.0698
    1WF      WF70611  22.265  19.896   7.434  0.4937 -0.3564 -0.4260
    1WF      WF70612  10.181   1.447   2.949 -0.0015 -0.2443  0.3536
    1WF      WF70613  19.332  23.743   8.838 -0.1223  0.2117 -0.0319
    1WF      WF70614  29.202  27.604   8.811  0.2406  0.2981  0.0286
    1WF      WF70615  17.844  11.448   0.359 -0.0564  0.1246  0.0277
    1WF      WF70616  29.139  18.537   1.157  0.1168  0.0313  0.0825
    1WF      WF70617  19.846  24.076   9.098  0.2302  0.2020  0.0523
    1WF      WF70618  19.677   5.063   9.316 -0.1386  0.1432 -0.2697
    1WF      WF70619  20.837  23.760   8.898  0.1249 -0.0755 -0.1970
    1WF      WF70620  15.074  15.530   0.710  0.1121  0.1971 -0.1769
    1WF      WF70621   5.292   1.479   1.912  0.0527 -0.2618 -0.1949
    1WF      WF70622  18.071   6.638   1.556  0.1163  0.1779 -0.2157
    1WF      WF70623  25.843   9.643   5.790  0.1774 -0.2916  0.1936
    1WF      WF70624   8.942  21.506   8.340 -0.0047  0.0530 -0.1140
    1WF      WF70625  27.610   9.383   0.376  0.1512 -0.0307 -0.0378
    1WF      WF70626   3.027  13.981   0.587  0.0777  0.1156  0.0852
    1WF      WF70627  13.367   1.032   1.324  0.0953 -0.2126 -0.1972
    1WF      WF70628   5.558  27.909   7.151  0.0893  0.1427  0.1268
    1WF      WF70629   5.719  19.616   6.437  0.1580  0.2730  0.1800
    1WF      WF70630  21.028   3.078   1.484  0.0771 -0.2988  0.0900
    1WF      WF70631   2.581  25.036   0.287  0.2016 -0.1570  0.1497
    1WF      WF70632  19.099   9.906   0.370  0.1034  0.2296  0.0149
    1WF      WF70633  24.251   7.156   6.800 -0.1447  0.0143  0.2527
    1WF      WF70634  11.317   3.152   2.133 -0.3497  0.2207  0.3418
    1WF      WF70635  24.815  21.823   7.556  0.1192 -0.1534  0.1006
    1WF      WF70636  29.762  16.823   8.361 -0.2498 -0.0563  0.0692
    1WF      WF70637   1.521   4.655   9.018  0.2884 -0.0959  0.1971
    1WF      WF70638  29.778   2.129   9.187 -0.1866 -0.0618 -0.1797
    1WF      WF70639  21.723  13.002   7.151  0.2589  0.0860 -0.1379
    1WF      WF70640   2.684  29.462   1.564  0.3502  0.1036  0.1307
    1WF      WF70641   7.361  26.266   8.698  0.1375 -0.0337 -0.1650
    1WF      WF70642  25.554  15.080   7.134 -0.1872  0.2836  0.2609
    1WF      WF70643  16.748   6.579   1.240  0.1661  0.1784  0.1190
    1WF      WF70644  22.968   8.966   8.109  0.2740  0.1059 -0.2210
    1WF      WF70645  20.248  25.189   0.993 -0.0707  0.0396  0.0978
    1WF      WF70646  27.810   9.749   0.735 -0.4382 -0.1042 -0.3737
    1WF      WF70647  19.656   1.542   0.305  0.1035 -0.0740 -0.0203
    1WF      WF70648  28.323  30.070   7.049 -0.0073  0.0640 -0.2487
    1WF      WF70649  23.327   8.131   0.191  0.1874 -0.1649  0.2860
    1WF      WF70650   0.859  15.071   5.910  0.2600 -0.3505 -0.0294
    1WF      WF70651  18.432  26.122   0.173  0.1118 -0.0469 -0.0457
    1WF      WF70652   8.958   9.200   2.643 -0.1596 -0.1370 -0.1010
    1WF      WF70653  11.703  27.264   9.108  0.1508 -0.0782 -0.0373
    1WF      WF70654   3.662   2.090   8.319 -0.1748 -0.0938  0.4250
    1WF      WF70655  10.078   5.915   1.733  0.1819 -0.2143 -0.4675
    1WF      WF70656  17.322  23.027   0.781  0.0046 -0.1331 -0.1233
    1WF      WF70657  29.208  12.154   6.928 -0.0934 -0.1889 -0.2730
    1WF      WF70658   8.932  21.211   7.560  0.0544  0.2566 -0.0854
    1WF      WF70659   3.844   0.203   1.793  0.0507 -0.2163 -0.0789
    1WF      WF70660  25.889  18.216   8.335  0.1206 -0.0874  0.1434
    1WF      WF70661  11.625  18.350   1.334 -0.4915 -0.2130  0.2444
    1WF      WF70662  23.039  25.553   6.777 -0.0453 -0.1466  0.0682
    1WF      WF70663  21.237  25.861   8.024 -0.0074 -0.0334 -0.1986
    1WF      WF70664  15.482  21.392   0.627  0.2341 -0.2710 -0.2223
    1WF      WF70665   1.374  10.362   7.819  0.0108 -0.2797  0.0404
    1WF      WF70666  23.192  14.762   9.245 -0.0243 -0.2143  0.1862
    1WF      WF70667   8.728   2.667   9.082 -0.0561 -0.1265  0.1410
    1WF      WF70668   5.076  15.094   9.392  0.2132  0.1488  0.0671
    1WF      WF70669   2.278  26.347   0.467 -0.1775 -0.0042 -0.0724
    1WF      WF70670   5.830  17.588   1.522  0.0511 -0.3717 -0.1967
    1WF      WF70671  29.035  21.602   0.540  0.1356 -0.2671  0.0803
    1WF      WF70672   0.056  24.617   2.799 -0.1300 -0.0710 -0.5261
    1WF      WF70673  10.701  14.651   6.781 -0.0578  0.4403  0.0368
    1WF      WF70674   7.723  24.754   7.246 -0.0951  0.0716 -0.1681
    1WF      WF70675  12.345  16.890   1.158  0.0621  0.0144 -0.0689
    1WF      WF70676   9.889  23.891   7.331  0.2664 -0.1890 -0.1077
    1WF      WF70677  21.500  18.355   7.969  0.0235 -0.2817  0.3967
    1WF      WF70678  10.836  20.550   8.436  0.0455 -0.2267  0.2681
    1WF      WF70679  25.313   8.601   0.834 -0.3879 -0.1551 -0.0239
    1WF      WF70680  30.050   4.759   1.256  0.0587  0.2717 -0.2403
    1WF      WF70681  19.273  20.443   0.360  0.0922  0.0206  0.0788
    1WF      WF70682  15.790   2.992   2.667  0.0771 -0.2672 -0.0003
    1WF      WF70683  25.983  11.425   7.686  0.0016  0.2888 -0.0639
    1WF      WF70684  20.839  20.068   7.307 -0.1389  0.1080  0.3037
    1WF      WF70685  29.132   7.622   7.149 -0.1009  0.0099 -0.2369
    1WF      WF70686  17.053  19.351   8.950  0.0975 -0.0130  0.0203
    1WF      WF70687  14.559  17.568   1.354  0.2254  0.0089  0.3032
    1WF      WF70688   0.398   2.125   2.441 -0.0499 -0.0785 -0.0746
    1WF      WF70689   2.419   0.434   8.072 -0.0719 -0.0070 -0.2835
    1WF      WF70690   6.496   6.263   0.474  0.1490  0.0949  0.1163
    1WF      WF70691  25.771  20.641   7.012 -0.0582  0.1836  0.2290
    1WF      WF70692  17.587  25.127   1.230 -0.2674  0.0139  0.0062
    1WF      WF70693  28.414  17.531   1.917 -0.1512  0.2061  0.2322
    1WF      WF70694  24.320  29.305   0.430 -0.1874 -0.0477  0.0815
    1WF      WF70695   8.592   8.158   2.881 -0.1705  0.1304 -0.0051
    1WF      WF70696  15.341  23.474   2.502 -0.2033 -0.2020  0.1926
    1WF      WF70697  16.727  27.100   1.271  0.0987  0.3951  0.0570
    1WF      WF70698  18.018   1.423   2.553 -0.2046  0.0356 -0.1042
    1WF      WF70699  18.368  23.195   1.276  0.1892  0.2644 -0.2978
    1WF      WF70700  21.565  29.199   7.935  0.0377 -0.1779 -0.1154
    1WF      WF70701  25.745   4.200   7.388 -0.1179 -0.1527 -0.1023
    1WF      WF70702   9.580  15.771   6.438 -0.0289 -0.0717  0.0490
    1WF      WF70703  26.154   0.935   0.670 -0.0403  0.0763  0.0343
    1WF      WF70704  17.929  28.378   6.953  0.2483  0.0429 -0.2908
    1WF      WF70705  29.754  24.458   8.167  0.1009 -0.1388 -0.4659
    1WF      WF70706  23.917  13.513   0.663  0.1137 -0.3779 -0.2785
    1WF      WF70707   2.743  28.199   0.464 -0.0412  0.0268 -0.4073
    1WF      WF70708  21.607   9.336   1.384 -0.0730 -0.1627  0.1742
    1WF      WF70709  22.945   5.807   8.867 -0.0116  0.5948  0.0082
    1WF      WF70710   3.599  23.719   8.201 -0.0739  0.0178 -0.1054
    1WF      WF70711  10.160  25.305   8.280  0.1116  0.2166 -0.0418
    1WF      WF70712   3.426   3.030   1.788 -0.1724  0.0117  0.1596
    1WF      WF70713  20.074   8.668   7.979 -0.2273 -0.3090 -0.1298
    1WF      WF70714  12.218  28.296   1.230  0.0054 -0.2390  0.3684
    1WF      WF70715   3.964  26.878   8.251  0.1633  0.0226 -0.3059
    1WF      WF70716  22.345   5.693   0.203 -0.0227  0.1250 -0.0641
    1WF      WF70717  10.149   1.170   2.459 -0.0934  0.3079 -0.1675
    1WF      WF70718  25.781  15.978   1.090  0.0677  0.1068  0.1662
    1WF      WF70719  25.756  18.108   6.790  0.1706 -0.0887  0.2442
    1WF      WF70720  21.076  27.610   8.831 -0.0967 -0.3504 -0.0430
    1WF      WF70721   5.016  13.157   0.978 -0.2473 -0.1227  0.1616
    1WF      WF70722  22.474   1.897   0.097 -0.0211  0.0154  0.0013
    1WF      WF70723  19.635  22.075   0.100 -0.1860  0.0883  0.1436
    1WF      WF70724  11.908  12.914   1.046  0.0947  0.0241  0.1041
    1WF      WF70725  16.087   1.545   0.099  0.0309 -0.0935 -0.0337
    1WF      WF70726  24.053   9.770   0.883 -0.0496  0.0855  0.1227
    1WF      WF70727  18.912  28.817   8.911 -0.1454 -0.2239  0.1573
    1WF      WF70728  13.094  23.902   9.179  0.2158 -0.2332 -0.2103
    1WF      WF70729   3.060  26.638   8.563  0.2085  0.0372 -0.0985
    1WF      WF70730   0.951   6.980   1.797  0.1513  0.0973  0.0155
    1WF      WF70731   2.307  17.933   5.553  0.1364 -0.1517 -0.0103
    1WF      WF70732   2.471  29.125   0.460  0.2136  0.2295 -0.3077
    1WF      WF70733  13.663  24.394   7.610  0.0645  0.1760 -0.0336
    1WF      WF70734  17.907  19.892   8.435  0.0947  0.0848  0.1969
    1WF      WF70735  20.636  26.953   0.319  0.0750 -0.2142  0.2592
    1WF      WF70736  27.579  16.590   8.780 -0.2028 -0.1412 -0.0368
    1WF      WF70737  28.782   2.589   7.469  0.1594  0.0530 -0.1813
    1WF      WF70738   5.364  24.703   8.749 -0.1551 -0.1243 -0.1836
    1WF      WF70739  12.816   2.660   1.579  0.3506  0.2511  0.1062
    1WF      WF70740  14.295  12.558   2.144  0.0024  0.0205 -0.2335
    1WF      WF70741   3.411   4.036   1.588 -0.3546 -0.4225 -0.1521
    1WF      WF70742  19.994  15.144   1.490  0.0702  0.1959 -0.0831
    1WF      WF70743  23.634  11.498   6.942  0.0915  0.0100  0.1635
    1WF      WF70744  13.823  25.918   3.509  0.1609  0.0358  0.1211
    1WF      WF70745   0.449   6.895   8.558 -0.0116 -0.2822 -0.0212
    1WF      WF70746   6.277  19.215   8.519  0.2353 -0.1773 -0.2039
    1WF      WF70747  21.928   6.717   8.353 -0.2223 -0.2210 -0.0301
    1WF      WF70748  16.746   0.703   1.421  0.3386  0.1730 -0.3410
    1WF      WF70749  19.891  26.505   8.387  0.1838  0.0095 -0.3451
    1WF      WF70750   3.574  22.297   9.323  0.1611 -0.3231  0.1015
    1WF      WF70751   6.342   3.721   0.365  0.2150 -0.0793  0.3443
    1WF      WF70752   1.614   0.086   1.909 -0.1071  0.1500 -0.3357
    1WF      WF70753   9.527  17.698   9.100  0.0414  0.1091  0.2178
    1WF      WF70754  29.835  10.076   8.812 -0.2784 -0.1031 -0.3532
    1WF      WF70755  13.885  13.007   8.354  0.2056 -0.2741 -0.1708
    1WF      WF70756  19.289  30.067   0.569 -0.1847 -0.1062 -0.0543
    1WF      WF70757  23.041  14.378   7.992 -0.0630 -0.0489 -0.2880
    1WF      WF70758  25.348  12.501   6.591  0.0008 -0.0784  0.0855
    1WF      WF70759   0.469  17.495   6.108  0.2284  0.1623 -0.4783
    1WF      WF70760   5.048   9.791   8.837  0.0514 -0.0417  0.3727
    1WF      WF70761  23.038  18.293   8.629 -0.0176  0.1279 -0.1398
    1WF      WF70762   3.965  19.465   4.717  0.0956  0.0695  0.5367
    1WF      WF70763   1.972   1.015   1.784  0.1325 -0.2772  0.0043
    1WF      WF70764   9.888  12.947   0.421  0.0562 -0.0810 -0.2103
    1WF      WF70765   3.339  15.129   0.403  0.2527 -0.1274  0.2299
    1WF      WF70766  16.070   4.621   9.239  0.0726 -0.0906 -0.0268
    1WF      WF70767   8.130  25.455   1.054 -0.3288 -0.3802 -0.1083
    1WF      WF70768   4.073  26.180   0.613  0.1362  0.1730  0.2603
    1WF      WF70769  14.607  20.661   0.167  0.2775 -0.2068  0.0158
    1WF      WF70770  12.809  21.350   0.051  0.3637  0.1372  0.2376
    1WF      WF70771   8.765  19.873   1.044  0.0486  0.2558 -0.1065
    1WF      WF70772  20.668  14.653   8.094 -0.3916 -0.0129 -0.0797
    1WF      WF70773   4.169   0.184   1.343  0.0537  0.2015  0.4083
    1WF      WF70774  23.245   8.574   7.965  0.2218  0.1569  0.1126
    1WF      WF70775  15.048  11.662   0.318 -0.0032  0.1833  0.0326
    1WF      WF70776  27.368  23.211   7.519  0.1243  0.2266  0.0360
    1WF      WF70777   1.531  29.176   9.074  0.0069  0.1608 -0.0076
    1WF      WF70778  19.295  25.720   7.302  0.0495  0.2856 -0.2618
    1WF      WF70779  21.767  16.101   0.027 -0.1072 -0.1581  0.0869
    1WF      WF70780  27.290  26.295   1.154  0.0571 -0.1296  0.0100
    1WF      WF70781  11.103   8.620   8.068 -0.2275 -0.0166  0.0162
    1WF      WF70782  28.122   5.710   9.199  0.1970 -0.2640 -0.2414
    1WF      WF70783   5.615  14.295   0.693  0.3311  0.2395 -0.1778
    1WF      WF70784   0.896   8.252   1.287  0.2296  0.0733 -0.0034
    1WF      WF70785  26.909   4.127   0.124 -0.2988 -0.2428 -0.0416
    1WF      WF70786  15.156   0.980   6.980  0.1219 -0.0267 -0.1198
    1WF      WF70787  21.663  14.283   1.352  0.1598  0.0033  0.1809
    1WF      WF70788  25.046  13.325   8.569 -0.0689  0.2131 -0.0554
    1WF      WF70789  20.025   9.915   1.401 -0.0706  0.1113 -0.1399
    1WF      WF70790  26.970   6.676   7.478 -0.0848 -0.0377  0.1407
    1WF      WF70791  29.944  15.359   8.613  0.4548 -0.2718  0.1056
    1WF      WF70792   5.542  29.665   2.718  0.0402 -0.2556  0.1478
    1WF      WF70793  16.518  16.472   9.069  0.1419  0.0850  0.1394
    1WF      WF70794  26.198  10.864   0.259  0.2557  0.1753 -0.0746
    1WF      WF70795   9.790  12.168   2.617 -0.2067  0.1386 -0.0515
    1WF      WF70796  18.198   6.387   1.138 -0.2510  0.1379 -0.0281
    1WF      WF70797  13.511  10.987   0.843  0.0643  0.0857  0.3359
    1WF      WF70798  27.387  16.428   8.372  0.1616 -0.0753  0.0224
    1WF      WF70799  16.745  13.092   9.341  0.0033 -0.1391 -0.0133
    1WF      WF70800  26.753   0.890   7.874  0.0937  0.1388 -0.3803
    1WF      WF70801  14.242   3.612   2.175 -0.0168 -0.3664 -0.0722
    1WF      WF70802  18.631  14.497   9.361  0.1627 -0.1414  0.0423
    1WF      WF70803   0.657  10.058   6.934  0.1720 -0.1569 -0.0975
    1WF      WF70804  29.178  26.126   8.958 -0.0716 -0.2669 -0.0750
    1WF      WF70805  15.190  25.812   9.368 -0.1385 -0.1129 -0.1809
    1WF      WF70806   5.434   2.503   9.286  0.0145  0.0608 -0.1596
    1WF      WF70807  21.343   8.826   1.267  0.4115  0.0073  0.1058
    1WF      WF70808  19.267  14.311   7.580  0.0297 -0.1654 -0.0593
    1WF      WF70809   4.116   3.166   7.971  0.0740 -0.0924 -0.1616
    1WF      WF70810   2.535  24.462   8.339  0.0963 -0.0233 -0.1882
    1WF      WF70811   7.515   2.230   0.311 -0.2482 -0.1471  0.1037
    1WF      WF70812  29.822  24.073   0.208 -0.0562  0.0823  0.1418
    1WF      WF70813  27.905  16.769   9.166 -0.0216  0.0397  0.1428
    1WF      WF70814   4.574   3.867   0.415 -0.0734 -0.0601  0.1867
    1WF      WF70815   0.261   9.933   5.448  0.0083 -0.1470  0.1268
    1WF      WF70816  12.362  21.573   8.756 -0.1695  0.0435 -0.0913
    1WF      WF70817   8.028  17.057   8.551  0.0365  0.0875  0.0521
    1WF      WF70818  22.099  18.750   0.733  0.0995  0.1884  0.1245
    1WF      WF70819   8.211  29.130   0.250 -0.4736  0.1237 -0.1790
    1WF      WF70820  25.971  15.417   6.328  0.0524 -0.0921  0.3736
    1WF      WF70821   6.617  22.034   1.465 -0.0594 -0.5212 -0.0067
    1WF      WF70822   0.355  17.456   6.603 -0.0007 -0.2597 -0.1554
    1WF      WF70823   9.930   4.010   8.177  0.0521 -0.0482  0.2039
    1WF      WF70824  11.433  27.805   0.640 -0.2956 -0.1668 -0.1396
    1WF      WF70825   3.586  16.553   7.689  0.0149  0.3148  0.0025
    1WF      WF70826   0.445  28.991   7.183  0.1355 -0.1440  0.0550
    1WF      WF70827  22.402  24.642   2.469  0.0842 -0.1429 -0.4478
    1WF      WF70828  27.721  12.979   1.688 -0.0918 -0.1694 -0.0507
    1WF      WF70829  10.050  28.991   0.159  0.1184 -0.3885 -0.0239
    1WF      WF70830  13.434   9.460   1.129 -0.1624 -0.0928  0.0216
    1WF      WF70831  29.587  23.570   7.112  0.2369 -0.0030 -0.0338
    1WF      WF70832  29.478  28.807   9.092  0.2107  0.2073  0.3150
    1WF      WF70833  11.397  14.009   8.915  0.5637 -0.0927  0.2308
    1WF      WF70834  10.145  14.420   9.013 -0.1427  0.1679  0.0137
    1WF      WF70835  20.507   6.638   9.225  0.0785  0.1467  0.1054
    1WF      WF70836   8.888  14.382   8.609 -0.0320 -0.0291 -0.2045
    1WF      WF70837  28.156   4.300   0.861  0.0816 -0.0150  0.0880
    1WF      WF70838  10.114  25.742   0.695 -0.0544  0.0036 -0.0857
    1WF      WF70839  13.975  12.239   1.616  0.2440 -0.4462  0.1980
    1WF      WF70840  10.013  19.878   2.615  0.1959 -0.2094  0.1227
    1WF      WF70841   0.325   2.818   7.593  0.1217 -0.0887 -0.0217
    1WF      WF70842  28.239  19.251   8.568 -0.1811 -0.2098  0.2296
    1WF      WF70843  23.280  28.933   7.878 -0.0635  0.0435  0.1876
    1WF      WF70844  26.179   4.313   7.627  0.1729 -0.0893 -0.0696
    1WF      WF70845  10.375  15.954   8.285 -0.0859  0.1410 -0.1503
    1WF      WF70846   7.487  19.887   8.267  0.3084 -0.0454 -0.1173
    1WF      WF70847   3.920  13.282   9.310  0.2877 -0.2043 -0.0285
    1WF      WF70848  17.568   0.131   1.555  0.2848 -0.1619  0.0778
    1WF      WF70849  21.179   7.476   2.212  0.1045 -0.0406  0.0758
    1WF      WF70850   1.267  26.405   0.044  0.1224  0.1977 -0.0860
    1WF      WF70851   2.320  11.465   8.956 -0.0953 -0.1501 -0.1972
    1WF      WF70852  22.688   7.154   7.497  0.0061 -0.4104 -0.2994
    1WF      WF70853   1.069  28.168   1.634 -0.1345  0.0447 -0.0169
    1WF      WF70854   9.369  10.615   2.239  0.1986  0.1041 -0.0801
    1WF      WF70855  13.230  10.868   1.274  0.0093 -0.2687 -0.1046
    1WF      WF70856  27.974  29.805   6.820  0.0767 -0.1612  0.0929
    1WF      WF70857  19.492  13.631   6.586  0.2368  0.3129 -0.2136
    1WF      WF70858   2.244   7.639   0.460  0.0655 -0.0124  0.0377
    1WF      WF70859   2.199  25.445   9.400  0.1440  0.3819 -0.0705
    1WF      WF70860  11.765  22.445   0.650 -0.0259 -0.0419  0.1538
    1WF      WF70861   9.193  18.738   9.191 -0.0754  0.1487  0.0011
    1WF      WF70862  15.745  20.626   6.832 -0.4754  0.0432 -0.3365
    1WF      WF70863  23.375   9.101   0.192  0.1661  0.3062  0.0801
    1WF      WF70864  11.095   5.144   0.389 -0.1289  0.0678  0.1481
    1WF      WF70865   1.167   2.637   0.233 -0.0223 -0.1958  0.0158
    1WF      WF70866  19.844  28.721   0.709  0.0550 -0.1059 -0.4368
    1WF      WF70867  17.300  23.899   8.316  0.0398 -0.0184  0.0824
    1WF      WF70868  12.923  10.157   3.389 -0.3358  0.1723 -0.0192
    1WF      WF70869   6.624   3.879   1.890 -0.1903  0.0395 -0.2009
    1WF      WF70870   5.485  14.878   9.286 -0.1086 -0.3281  0.0858
    1WF      WF70871  23.613   6.909   0.027  0.2896 -0.0858 -0.1148
    1WF      WF70872  17.001  16.632   6.836 -0.0053 -0.0578  0.0091
    1WF      WF70873  29.425  13.934   7.992  0.2850 -0.0577  0.0515
    1WF      WF70874  22.708   3.307   8.745 -0.0062  0.1628 -0.0594
    1WF      WF70875  13.053  14.066   7.987 -0.2152  0.0629 -0.1628
    1WF      WF70876   5.740  15.319   1.622  0.1338  0.0237  0.3402
    1WF      WF70877  22.862  10.643   8.733  0.0977 -0.0959 -0.0995
    1WF      WF70878  18.036   1.210   0.914 -0.4210 -0.1613  0.0346
    1WF      WF70879   0.871   6.286   7.906  0.2099 -0.0863 -0.0579
    1WF      WF70880   3.735   2.948   7.659 -0.1543  0.1627  0.2519
    1WF      WF70881  27.862  27.224   0.559 -0.2560 -0.2132 -0.1821
    1WF      WF70882  27.264  25.709   0.980  0.1411 -0.1205  0.4519
    1WF      WF70883  11.404   2.053   1.740 -0.2266 -0.2208 -0.1377
    1WF      WF70884  15.738  26.082   2.180  0.1942  0.2610 -0.2774
    1WF      WF70885   2.837   4.044   0.601 -0.0980  0.0842  0.2438
    1WF      WF70886   1.732   1.245   8.909 -0.0406  0.2914 -0.2922
    1WF      WF70887  29.822  27.072   8.298 -0.2769  0.0579 -0.2019
    1WF      WF70888  22.734  23.087   7.595 -0.0992 -0.2458 -0.1754
    1WF      WF70889  25.127  22.591   2.206 -0.3164 -0.0357 -0.2432
    1WF      WF70890   8.551  19.519   2.178 -0.1431 -0.0292  0.0330
    1WF      WF70891  10.264  29.858   3.878 -0.2283  0.3142  0.1176
    1WF      WF70892  11.937   8.880   0.555 -0.2608  0.0181  0.0735
    1WF      WF70893  11.386   4.857   7.276 -0.1701 -0.1208 -0.1088
    1WF      WF70894   3.680  23.759   0.799 -0.0404  0.2480  0.2816
    1WF      WF70895   1.500   4.168   9.227  0.0463  0.0775 -0.2329
    1WF      WF70896  14.817  17.523   8.468 -0.2306 -0.2310 -0.0142
    1WF      WF70897  27.128  20.539   0.043 -0.0995 -0.0933  0.1721
    1WF      WF70898   1.746   6.930   0.443  0.3934  0.1722 -0.0888
    1WF      WF70899  25.706  18.672   9.196  0.0818 -0.1466 -0.2680
    1WF      WF70900  27.337   9.468   7.437 -0.3485  0.2764  0.1644
    1WF      WF70901  17.893   9.739   0.958 -0.0755  0.0058 -0.1574
    1WF      WF70902  12.532  29.498   0.930 -0.3106  0.2718 -0.0293
    1WF      WF70903   8.372   9.596   1.958  0.0459  0.1614  0.0653
    1WF      WF70904  27.295   1.012   0.093 -0.1463 -0.2760  0.0153
    1WF      WF70905  18.851   0.565   8.766  0.0200  0.0668  0.2213
    1WF      WF70906   8.552   9.016   1.114 -0.1543  0.1839 -0.0653
    1WF      WF70907   7.685   4.605   1.895 -0.0865  0.0597 -0.3663
    1WF      WF70908   1.013  23.072   8.536  0.0988  0.0557 -0.0240
    1WF      WF70909  27.750  19.216   8.782  0.0099 -0.2148 -0.1371
    1WF      WF70910  22.650   1.677   1.710 -0.0111 -0.3433 -0.0829
    1WF      WF70911  29.706  24.391   9.265  0.4766 -0.1695 -0.0360
    1WF      WF70912  15.838   8.510   3.203  0.0701 -0.1040  0.0352
    1WF      WF70913  25.355   9.936   8.703  0.2392 -0.0331  0.1959
    1WF      WF70914  25.107  16.517   7.372 -0.1306 -0.1172 -0.3258
    1WF      WF70915  27.498  25.415   9.074  0.2205  0.1468  0.1625
    1WF      WF70916  22.251  19.751   5.870  0.1886  0.0746  0.1686
    1WF      WF70917   8.164  25.218   1.649  0.2014  0.4096 -0.2891
    1WF      WF70918  10.204  26.972   9.217  0.1228  0.1818 -0.0339
    1WF      WF70919  23.225  22.895   7.392 -0.1224  0.0711  0.0566
    1WF      WF70920   3.215  27.217   8.612 -0.1363 -0.1003 -0.0528
    1WF      WF70921  15.138  27.093   0.895  0.0791  0.4836 -0.1801
    1WF      WF70922  29.224   9.367   8.469  0.0595 -0.0325 -0.3287
    1WF      WF70923  19.746   3.571   0.663  0.2817 -0.3789 -0.0781
    1WF      WF70924  27.279   6.422   8.415 -0.3461  0.0574  0.1626
    1WF      WF70925  22.152  17.843   0.461 -0.0815 -0.2130  0.1583
    1WF      WF70926  26.873   3.106   5.904 -0.2998  0.2640  0.0038
    1WF      WF70927   4.349   6.517   2.561 -0.1637 -0.0104 -0.1469
    1WF      WF70928  26.228  27.019   2.869  0.3803  0.1868  0.0194
    1WF      WF70929  21.377  16.047   8.165 -0.0829 -0.0696 -0.1125
    1WF      WF70930  28.177  12.598   8.593 -0.0108 -0.3283  0.0422
    1WF      WF70931  25.056  19.821   0.377  0.4505 -0.2500  0.0891
    1WF      WF70932   0.080  13.243   0.530  0.0211 -0.2531 -0.1024
    1WF      WF70933   1.796  11.207   1.111 -0.0238  0.0119  0.0622
    1WF      WF70934   9.101  27.390   8.890 -0.1375  0.2023 -0.1915
    1WF      WF70935  16.687  24.086   0.235 -0.1962  0.0345  0.0229
    1WF      WF70936  19.287  20.919   8.974 -0.1755 -0.0841  0.0423
    1WF      WF70937  11.235   6.827   3.488  0.1819  0.0395  0.0594
    1WF      WF70938  11.974  21.667   1.170 -0.0087 -0.0285  0.0653
    1WF      WF70939  10.893   2.229   1.763 -0.1822 -0.0091  0.0982
    1WF      WF70940   8.859  13.156   1.950  0.0866  0.2538 -0.2115
    1WF      WF70941  29.140   8.219   0.838 -0.0067 -0.1232  0.1540
    1WF      WF70942  10.998  25.363   8.757 -0.0421  0.2984  0.0919
    1WF      WF70943  18.233  10.347   0.276  0.0073  0.2063  0.3349
    1WF      WF70944  24.620  19.796   9.210  0.2013 -0.0313 -0.1582
    1WF      WF70945   1.376   9.332   9.393  0.0795  0.0088  0.2791
    1WF      WF70946   8.039  11.577   1.104 -0.0416  0.1397  0.1287
    1WF      WF70947  26.180   9.990   1.004  0.4145 -0.2587  0.0663
    1WF      WF70948   0.107  15.853   8.556  0.2677 -0.0862  0.1380
    1WF      WF70949  12.634   1.042   9.142 -0.1148  0.1454  0.0050
    1WF      WF70950  18.512  15.785   8.529  0.0096 -0.1361  0.1831
    1WF      WF70951  10.197  25.856   8.007  0.2538  0.0039 -0.0047
    1WF      WF70952  20.535  18.289   8.264 -0.3331 -0.1795  0.3658
    1WF      WF70953   4.599   7.073   0.383  0.1012 -0.1668  0.0069
    1WF      WF70954   4.859  27.574   3.024  0.5992  0.3607  0.2102
    1WF      WF70955  13.044   9.824   0.352 -0.3524  0.0776  0.1392
    1WF      WF70956  16.756  26.614   6.984  0.0077  0.0327  0.0809
    1WF      WF70957   3.278  16.505   7.212 -0.1435  0.1831 -0.2717
    1WF      WF70958  13.551  25.640   9.009  0.0008 -0.1746  0.4342
    1WF      WF70959  24.521  12.663   8.736  0.1312 -0.3969 -0.0262
    1WF      WF70960   6.478  21.794   0.533  0.0662  0.0979 -0.0491
    1WF      WF70961  13.007  18.851   1.041  0.2973 -0.0418  0.4029
    1WF      WF70962   1.305  14.885   6.934 -0.2677 -0.1003 -0.0089
    1WF      WF70963  15.879  12.522   8.482  0.2810  0.0751 -0.0175
    1WF      WF70964   4.534  13.898   7.199  0.1281 -0.0819  0.2453
    1WF      WF70965  10.517  25.606   1.111  0.1889 -0.2374 -0.0557
    1WF      WF70966  21.074   4.182   1.093  0.0161 -0.0667  0.1162
    1WF      WF70967  16.843   7.579   0.107 -0.0229  0.0291 -0.1443
    1WF      WF70968  19.143   6.132   8.806 -0.0263  0.0042  0.1250
    1WF      WF70969  22.938  22.836   1.558 -0.1860  0.2971  0.2332
    1WF      WF70970  20.462  26.795   6.820  0.0049 -0.0922 -0.1193
    1WF      WF70971  23.535  14.496   6.845  0.2661  0.1762  0.1258
    1WF      WF70972  17.892  17.183   7.895 -0.1462 -0.0462  0.3732
    1WF      WF70973   2.425  10.009   8.109  0.2184  0.3461 -0.1540
    1WF      WF70974   2.672   6.330   9.113 -0.0365 -0.1962  0.0794
    1WF      WF70975  18.618  21.660   0.350  0.0475  0.0144 -0.2239
    1WF      WF70976  29.837   2.636   7.480  0.0773  0.1611  0.1537
    1WF      WF70977  29.154   7.648   8.131  0.0379 -0.1422  0.0592
    1WF      WF70978   3.181  19.494   0.454  0.0497  0.0742  0.1399
    1WF      WF70979   5.299  15.636   7.755 -0.4028  0.3098  0.3802
    1WF      WF70980  20.564  11.726   7.900 -0.1940 -0.0285  0.0786
    1WF      WF70981  26.334  20.022   5.787 -0.2381 -0.0836 -0.4216
    1WF      WF70982  11.144  14.251   2.706  0.3585 -0.1867 -0.2207
    1WF      WF70983   0.686  23.443   8.505 -0.0742  0.1206 -0.1418
    1WF      WF70984  25.512   5.620   9.344 -0.2138 -0.1601  0.2683
    1WF      WF70985  17.867  12.888   8.531 -0.0475  0.0884  0.1437
    1WF      WF70986  13.557  29.556   1.016  0.2342 -0.3359 -0.2645
    1WF      WF70987  16.146  20.061   0.239  0.0421  0.1480  0.1235
    1WF      WF70988  20.715  19.315   1.408 -0.0997 -0.1943  0.1499
    1WF      WF70989  12.714  24.574   3.507 -0.1205  0.1705 -0.0866
    1WF      WF70990  14.318   0.297   1.666  0.4969  0.0392  0.4223
    1WF      WF70991   1.135  28.647   3.454 -0.0695 -0.1064  0.0480
    1WF      WF70992   7.336  18.926   0.148 -0.1320  0.0003 -0.2204
    1WF      WF70993  16.147  10.933   0.093  0.1599  0.3593 -0.2770
    1WF      WF70994   5.223  25.695   7.566  0.0398  0.0475  0.0904
    1WF      WF70995  26.138   5.492   9.057  0.1326  0.2732 -0.0378
    1WF      WF70996   6.781  29.290   8.783 -0.2388  0.1021 -0.1389
    1WF      WF70997  18.289   8.378   1.168  0.0251 -0.1961 -0.0511
    1WF      WF70998  10.191  26.464   0.105  0.0196  0.0068 -0.0992
    1WF      WF70999  10.304  29.157   0.623  0.2872 -0.4119  0.1582
    1WF      WF71000  10.714   8.678   9.226 -0.1774  0.0465  0.0571
    1WF      WF71001  15.786   9.747   8.547 -0.0961 -0.2907 -0.1229
    1WF      WF71002  10.901   0.315   1.209 -0.1960 -0.1246  0.0814
    1WF      WF71003   1.499  21.281   9.186 -0.0105  0.3187  0.3791
    1WF      WF71004   4.765  19.669   8.308 -0.0632  0.1005  0.1924
    1WF      WF71005  19.827   1.978   8.599  0.0200 -0.0557 -0.0420
    1WF      WF71006   4.295   8.289   1.429 -0.2216  0.2768  0.0493
    1WF      WF71007  20.490   7.766   8.218 -0.1109 -0.1958 -0.1595
    1WF      WF71008   3.453  27.201   9.061  0.1069 -0.0761  0.1378
    1WF      WF71009  22.134   8.089   2.557 -0.0341 -0.2061 -0.1146
    1WF      WF71010  11.114  24.899   8.489  0.3251 -0.0597  0.0081
    1WF      WF71011  24.950   7.677   8.502 -0.1277  0.0620  0.0611
    1WF      WF71012  20.313  16.519   6.582 -0.3277  0.0930 -0.1559
    1WF      WF71013   1.386   6.635   8.622  0.2946 -0.0330  0.1832
    1WF      WF71014  20.811  12.486   8.892 -0.1899  0.2784 -0.0717
    1WF      WF71015  17.651   6.144   0.236  0.0140 -0.3471  0.2035
    1WF      WF71016  13.941  27.065   0.885 -0.2880  0.2461  0.2678
    1WF      WF71017   5.613  14.170   0.180  0.0647 -0.0508  0.2808
    1WF      WF71018   3.685  27.443   0.447 -0.1258 -0.2289  0.1303
    1WF      WF71019   9.977  26.988   1.719 -0.4154  0.2611  0.1795
    1WF      WF71020   6.506  10.519   1.584 -0.0752  0.1568  0.0506
    1WF      WF71021  24.690  14.620   7.627 -0.2704  0.0960 -0.0595
    1WF      WF71022  24.935  10.220   7.060  0.0837  0.0358  0.0075
    1WF      WF71023  28.898  19.837   2.388  0.0173  0.3938  0.0739
    1WF      WF71024  24.367  10.926   6.987  0.3334  0.0128  0.3043
    1WF      WF71025  19.554   2.994   8.839  0.0562  0.1772 -0.5016
    1WF      WF71026  13.555  22.955   0.667  0.1265  0.0016 -0.1766
    1WF      WF71027  11.598  12.877   1.414 -0.1766  0.0067 -0.0135
    1WF      WF71028  11.526  18.298   8.649 -0.0288 -0.3566  0.2768
    1WF      WF71029  19.815  10.408   8.017  0.1428  0.1451  0.1431
    1WF      WF71030  11.657   3.693   0.880 -0.0783 -0.0185  0.0348
    1WF      WF71031   6.625   1.114   9.056 -0.3595 -0.0880  0.2083
    1WF      WF71032  29.529  21.053   8.587 -0.0342  0.4650 -0.3706
    1WF      WF71033   8.853  28.374   0.856  0.0318 -0.0462 -0.2815
    1WF      WF71034  18.339  28.258   7.117 -0.0309  0.0111 -0.2178
    1WF      WF71035  26.469  17.478   1.122  0.2023 -0.0476  0.3649
    1WF      WF71036  25.725  28.551   7.891  0.1837  0.1453 -0.0124
    1WF      WF71037   2.109  11.745   9.305 -0.2066 -0.0361 -0.1937
    1WF      WF71038   6.186  27.060   8.900 -0.1338  0.0213 -0.0490
    1WF      WF71039   8.831  17.648   9.291 -0.0964  0.2868  0.1580
    1WF      WF71040  18.623   8.531   9.036  0.0230  0.1008  0.1133
    1WF      WF71041  20.501  21.418   0.319 -0.1178 -0.1438 -0.0626
    1WF      WF71042   6.770  19.700   7.069  0.1763 -0.0231 -0.0851
    1WF      WF71043  18.307  10.270   7.558 -0.0254  0.2507  0.1650
    1WF      WF71044  21.842  16.518   0.758  0.2572 -0.0458 -0.2760
    1WF      WF71045   3.504   3.209   0.390 -0.0735 -0.2338 -0.3142
    1WF      WF71046   4.754   3.255   2.530 -0.5428 -0.2198  0.0701
    1WF      WF71047  20.525  27.521   0.418  0.1820  0.1260  0.0796
    1WF      WF71048  12.277  23.408   7.232  0.0370 -0.0091  0.1583
    1WF      WF71049  19.977   7.826   1.181 -0.0198 -0.1231 -0.2406
    1WF      WF71050  14.147  20.721   0.140 -0.1574  0.2260  0.0873
    1WF      WF71051   7.591  21.129   7.516  0.0014  0.0485  0.1447
    1WF      WF71052  12.392  22.641   0.676 -0.1947 -0.0493 -0.1127
    1WF      WF71053  16.550   7.022   1.055  0.1810 -0.3092 -0.1541
    1WF      WF71054  25.386  29.803   8.402 -0.0763  0.1174 -0.1173
    1WF      WF71055  21.494  10.310   1.293 -0.2524  0.1653  0.0502
    1WF      WF71056   3.614  14.760   0.530 -0.2362  0.1779  0.1475
    1WF      WF71057   8.995  28.658   1.262 -0.3501 -0.2699 -0.2403
    1WF      WF71058  28.426   2.739   6.126 -0.1201 -0.0622 -0.0158
    1WF      WF71059   8.766   2.824   0.930 -0.0164 -0.2281 -0.1627
    1WF      WF71060  13.064   0.426   7.323 -0.3269  0.0789  0.0270
    1WF      WF71061  27.311  19.663   1.667 -0.1047  0.0712  0.1367
    1WF      WF71062  14.143  13.525   0.743 -0.1570  0.1026 -0.2815
    1WF      WF71063   7.755  25.223   0.731 -0.1089 -0.1547  0.4596
    1WF      WF71064  28.127  29.851   2.485  0.1016 -0.1050 -0.1880
    1WF      WF71065  29.912  22.623   6.128 -0.1658  0.1527 -0.1467
    1WF      WF71066   4.820  24.154   5.336  0.0538 -0.0553  0.4017
    1WF      WF71067  10.181  11.309   2.906  0.1973  0.1125 -0.0696
    1WF      WF71068  18.220  17.454   0.858  0.2080  0.1116  0.5613
    1WF      WF71069   7.804   3.873   0.484 -0.2660  0.2729 -0.2261
    1WF      WF71070  12.287  22.140   0.629  0.2820 -0.3406  0.1152
    1WF      WF71071  11.647  27.834   8.231 -0.1450  0.0536 -0.0209
    1WF      WF71072   4.634   8.416   9.097 -0.0848  0.3006  0.1366
    1WF      WF71073   7.921  20.287   0.674  0.1861  0.0569  0.2611
    1WF      WF71074  21.166  20.421   7.415 -0.0884 -0.0791  0.0861
    1WF      WF71075   9.169  29.806   1.623  0.1888  0.0294 -0.2802
    1WF      WF71076  21.465   1.833   1.258  0.5433  0.2064 -0.1831
    1WF      WF71077   0.299  25.316   7.682  0.0317  0.2885  0.1026
    1WF      WF71078   2.704  18.291   8.528 -0.1507  0.0654 -0.2573
    1WF      WF71079  10.125   7.592   1.386  0.0831  0.0042 -0.1123
    1WF      WF71080   0.388  18.691   8.505  0.0776 -0.1439  0.1200
    1WF      WF71081  10.865  24.298   2.613  0.1318 -0.0749 -0.0951
    1WF      WF71082  25.810   5.831   8.935 -0.1521  0.0620  0.0564
    1WF      WF71083  23.570   9.492   1.976  0.0890  0.1622  0.1859
    1WF      WF71084   7.853  22.467   8.260  0.0073  0.1062 -0.0825
    1WF      WF71085  15.003  25.682   8.416  0.3146 -0.0554  0.3137
    1WF      WF71086  15.293   2.690   2.925  0.1373 -0.0248  0.0552
    1WF      WF71087   2.929   3.646   2.369  0.1522  0.0338 -0.2026
    1WF      WF71088   9.348  14.056   8.635 -0.2248 -0.0845 -0.0909
    1WF      WF71089  18.434   9.731   7.454  0.6406  0.0605  0.1495
    1WF      WF71090   1.873   9.994   8.994 -0.1792  0.1137 -0.1994
    1WF      WF71091   8.972  27.060   2.891 -0.0259  0.1326  0.1102
    1WF      WF71092  28.560  26.939   6.645 -0.0466  0.1368  0.1745
    1WF      WF71093   9.150  15.740   0.454  0.1108  0.0379 -0.1198
    1WF      WF71094  13.591   0.075   8.869 -0.1255  0.0249 -0.0118
    1WF      WF71095   6.257   7.598   0.366 -0.1017  0.2709 -0.2724
    1WF      WF71096  21.838  16.242   8.054  0.1078  0.1383  0.1618
    1WF      WF71097  22.540  20.339   0.407  0.0513 -0.0682 -0.2354
    1WF      WF71098  29.079   7.601   6.529  0.0448 -0.1942 -0.1658
    1WF      WF71099   7.238   7.430   8.002 -0.2543 -0.1856 -0.1017
    1WF      WF71100   6.592   9.184   9.143 -0.0763 -0.2420 -0.0765
    1WF      WF71101  18.793  29.322   8.828 -0.0850 -0.1037  0.2558
    1WF      WF71102  28.758  15.942   7.252 -0.0647  0.1475  0.0361
    1WF      WF71103   7.155   9.632   9.076  0.0391  0.1840 -0.1100
    1WF      WF71104  28.629   4.091   8.225  0.0026 -0.0327 -0.1821
    1WF      WF71105  10.268  28.633   9.295 -0.2269 -0.0999  0.1499
    1WF      WF71106  14.339  13.790   1.094 -0.1312  0.0858 -0.0430
    1WF      WF71107  24.316  10.194   5.340 -0.0626  0.1882 -0.0489
    1WF      WF71108   6.467   1.740   9.167 -0.2724  0.1592 -0.1013
    1WF      WF71109   6.730   5.289   8.084  0.0455 -0.0476  0.0068
    1WF      WF71110   4.263  19.460   8.521 -0.1119  0.0632  0.0961
    1WF      WF71111  25.564  15.466   6.742 -0.1046 -0.0430  0.0853
    1WF      WF71112  20.654   3.265   8.763 -0.0056 -0.1635  0.3151
    1WF      WF71113  28.174  10.137   9.132  0.0663 -0.1487  0.1960
    1WF      WF71114  22.981  23.632   2.750 -0.0234  0.0360  0.0461
    1WF      WF71115  18.495   0.480   9.094  0.0054 -0.1823 -0.1426
    1WF      WF71116  27.671   9.767   1.338 -0.0190 -0.2366  0.3144
    1WF      WF71117  11.278   3.773   0.519 -0.1287 -0.2360  0.0258
    1WF      WF71118  17.919  12.199   6.544  0.2232 -0.2451 -0.2015
    1WF      WF71119  10.311   0.685   8.761  0.0585 -0.2198  0.1214
    1WF      WF71120  23.614  21.713   2.265  0.0797  0.0640 -0.1492
    1WF      WF71121   6.178  26.255   8.647  0.1820  0.1845  0.2149
    1WF      WF71122  22.025   2.033   7.836  0.4314 -0.1276 -0.2238
    1WF      WF71123  24.801  29.341   0.339  0.1381  0.2201  0.0676
    1WF      WF71124  22.593   4.616   0.965 -0.0182 -0.1663  0.2345
    1WF      WF71125   4.044   4.574   2.291 -0.2147  0.0683  0.0126
    1WF      WF71126  12.890   5.608   1.701 -0.2362 -0.1229 -0.2714
    1WF      WF71127   3.580  22.718   7.813  0.1060  0.2211 -0.0288
    1WF      WF71128   9.673  18.511   1.904  0.2975  0.2948 -0.0282
    1WF      WF71129  18.864   4.149   1.833  0.1659 -0.0240  0.1631
    1WF      WF71130  29.374  19.168   2.104 -0.0655  0.0364  0.0622
    1WF      WF71131   6.202  22.307   1.383  0.1543  0.0668 -0.0169
    1WF      WF71132  11.992  24.200   1.052 -0.0633  0.2315 -0.2240
    1WF      WF71133  21.256  19.961   0.491  0.3240 -0.2224 -0.5497
    1WF      WF71134  29.974  28.814   1.114 -0.0267  0.0159  0.2725
    1WF      WF71135   1.529  22.406   0.564 -0.2314  0.1693  0.2310
    1WF      WF71136  12.536   0.970   3.998  0.0199 -0.1178  0.0485
    1WF      WF71137   2.809  19.782   0.327  0.2115 -0.4996  0.0309
    1WF      WF71138  24.597   8.489   8.850 -0.1793 -0.0101  0.2907
    1WF      WF71139  12.439  21.920   1.045  0.4015  0.2254 -0.0516
    1WF      WF71140  21.474   4.488   1.074  0.0661  0.0944  0.3359
    1WF      WF71141  25.247  26.551   7.608 -0.2342  0.2142 -0.0143
    1WF      WF71142   5.945  17.821   1.088 -0.0050 -0.0189 -0.3829
    1WF      WF71143  21.923  10.625   8.132  0.2687 -0.3201 -0.2043
    1WF      WF71144  11.886  21.888   0.731  0.1932 -0.0986  0.2264
    1WF      WF71145  15.676   8.540   8.430 -0.0719 -0.1194  0.2297
    1WF      WF71146   9.867  17.986   8.203 -0.3121  0.0538 -0.0920
    1WF      WF71147   9.123   0.783   2.743 -0.1420 -0.0550  0.2880
    1WF      WF71148  26.987  16.583   7.263  0.0604 -0.0356 -0.0148
    1WF      WF71149   4.947  26.778   0.900  0.2103 -0.0655  0.2693
    1WF      WF71150  15.737  18.642   9.252  0.3300 -0.0843  0.1387
    1WF      WF71151  23.518  26.356   0.705 -0.0010  0.3157 -0.0171
    1WF      WF71152  14.737  26.211   6.962 -0.2926 -0.0754  0.1829
    1WF      WF71153  27.890  12.956   8.631 -0.3553 -0.0705 -0.1918
    1WF      WF71154  18.679  22.890   8.839  0.2507 -0.1789 -0.0524
    1WF      WF71155  18.658  18.456   7.667  0.1430  0.1684 -0.4402
    1WF      WF71156  23.221  13.237   9.111 -0.0771  0.0030  0.0178
    1WF      WF71157  29.034   4.817   7.751 -0.2005 -0.3165 -0.2551
    1WF      WF71158  12.734   4.301   1.352  0.2711 -0.0752  0.2936
    1WF      WF71159   0.770  23.009   6.618  0.1222 -0.3479  0.1985
    1WF      WF71160   7.123  13.750   8.745  0.0084 -0.0989  0.0251
    1WF      WF71161   1.652  19.159   0.521  0.3004  0.0596  0.0629
    1WF      WF71162  25.544   2.975   8.594 -0.0956  0.1046 -0.1660
    1WF      WF71163   3.761  29.906   1.585 -0.0640 -0.2815  0.5148
    1WF      WF71164   8.827  30.123   7.192  0.1148 -0.2214 -0.1351
    1WF      WF71165   4.803   4.357   6.952 -0.0376 -0.0063 -0.1200
    1WF      WF71166   6.296  15.536   9.029 -0.1722 -0.1488 -0.1646
    1WF      WF71167  22.805  20.373   7.197 -0.0861 -0.1488 -0.3157
    1WF      WF71168  29.958  19.666   9.164 -0.0991 -0.0420  0.3231
    1WF      WF71169  11.991  26.810   9.228  0.2991 -0.1687  0.1273
    1WF      WF71170   1.503  24.050   0.828 -0.1001 -0.0734 -0.1037
    1WF      WF71171  11.584  29.426   8.747 -0.1422 -0.1988 -0.2275
    1WF      WF71172  15.150   6.462   8.127  0.0556  0.0530  0.2728
    1WF      WF71173  24.796  14.910   1.961  0.3801  0.0208 -0.0496
    1WF      WF71174  13.365   6.945   8.783  0.0371 -0.0096 -0.0523
    1WF      WF71175   3.987   1.104   9.164  0.2036 -0.0558  0.0627
    1WF      WF71176  26.953  28.688   0.664 -0.2569 -0.0931  0.0073
    1WF      WF71177  13.081   2.707   1.158 -0.0401 -0.0931  0.0674
    1WF      WF71178   7.477   3.708   3.648  0.2090  0.2330 -0.2030
    1WF      WF71179  10.632  28.456   1.142 -0.1801 -0.1745 -0.0769
    1WF      WF71180  25.634  17.063   8.787 -0.1470 -0.0429  0.0933
    1WF      WF71181  29.831  11.594   6.290  0.1242 -0.0982  0.0783
    1WF      WF71182   5.137   1.949   0.918  0.1634 -0.1693 -0.2849
    1WF      WF71183   6.848   9.135   0.707  0.1756  0.0335 -0.1498
    1WF      WF71184   7.270   4.662   1.406  0.1650  0.0208 -0.2356
    1WF      WF71185   3.458  20.110   1.764  0.1456  0.1521 -0.1976
    1ION     NA71186  15.413   8.496   8.855  0.0420  0.0273  0.0620
    1ION     NA71187  24.295  14.339   5.714 -0.1938  0.0435  0.0346
    1ION     NA71188  26.051  25.415   2.854 -0.2886  0.1785 -0.1201
    1ION     NA71189  21.987  28.097   9.127 -0.1726 -0.1892 -0.2736
    1ION     NA71190  11.166  13.565   8.247 -0.2795 -0.0866 -0.2275
    1ION     NA71191   1.988   6.950   2.710 -0.0373  0.1337 -0.0269
    1ION     NA71192  21.427  23.446   1.763  0.2136 -0.2152 -0.1167
    1ION     NA71193   3.742  27.008   2.522  0.0095 -0.1419  0.0067
    1ION     NA71194   8.737  13.682   1.879 -0.2253  0.2352 -0.0064
    1ION     NA71195  21.085  19.380   2.468  0.1446 -0.1858  0.1862
    1ION     NA71196  16.230   1.748   7.166 -0.2367 -0.1363  0.1401
    1ION     NA71197   4.252   0.450   3.703 -0.0873 -0.0273 -0.0583
    1ION     NA71198   3.316   7.243   9.037 -0.1151  0.2101 -0.4853
    1ION     NA71199  23.952  19.249   8.565  0.0052  0.0127 -0.1211
    1ION     NA71200  14.440  26.889   6.387 -0.2805  0.0359 -0.0601
    1ION     NA71201  11.323  10.942   7.611 -0.1240 -0.0426  0.1268
    1ION     NA71202  11.096  25.439   6.267  0.0290 -0.1633 -0.1120
    1ION     NA71203   9.348  26.667   6.328 -0.2414 -0.0251 -0.1825
    1ION     NA71204  21.209  21.720   7.833  0.3250  0.0786 -0.1166
    1ION     NA71205  13.084  15.807   2.390  0.2137  0.1515  0.1517
    1ION     NA71206  19.718  24.640   8.333  0.1977  0.4238  0.1422
    1ION     NA71207  25.989  14.128   0.882  0.1097 -0.0323  0.0234
    1ION     NA71208   1.412  23.147   1.515 -0.1003  0.2981 -0.2164
    1ION     NA71209   1.078  16.226   5.203  0.4649  0.1906 -0.0702
    1ION     NA71210  10.177  13.596   7.450  0.1248 -0.3606  0.1547
    1ION     NA71211  24.959   8.153   2.258  0.2339 -0.1617  0.0295
    1ION     NA71212   7.106  15.738   9.057  0.0384 -0.1966 -0.0338
    1ION     NA71213  16.429   7.697   3.379 -0.0157 -0.0148 -0.2732
    1ION     NA71214  28.839   6.693   8.773  0.0493 -0.1837 -0.1189
    1ION     NA71215   9.747  23.874   7.767  0.0418  0.3126  0.0725
    1ION     NA71216  16.152  20.550   7.116  0.2629 -0.1627 -0.3500
    1ION     NA71217  10.575   8.526   7.360  0.0449 -0.2728 -0.2275
    1ION     NA71218  12.211   9.646   3.541  0.1813 -0.2375  0.1190
    1ION     NA71219  20.006  20.597   2.260 -0.0229 -0.1899 -0.1402
    1ION     NA71220  29.965   3.183   9.341  0.1384 -0.0377  0.4058
    1ION     NA71221  28.573  18.484   5.793  0.0510 -0.1217 -0.1924
    1ION     NA71222   2.580  17.841   7.586 -0.0717 -0.0707 -0.2140
    1ION     NA71223  22.822  19.314   2.433 -0.0681 -0.1453 -0.0577
    1ION     NA71224  28.976  30.079   6.556 -0.2028  0.0091 -0.2801
    1ION     NA71225  18.369  16.945   1.116  0.0965 -0.0989  0.3083
    1ION     NA71226  14.322  15.135   6.750 -0.1473 -0.1996 -0.3352
    1ION     NA71227  29.276  19.714   0.284  0.1699 -0.1387  0.2795
    1ION     NA71228  25.197  12.577   1.084  0.0965  0.0363 -0.1636
    1ION     NA71229  14.861  13.503   7.519 -0.0805 -0.3153 -0.0489
    1ION     NA71230   6.696  19.362   6.054 -0.2727 -0.0638  0.0148
    1ION     NA71231  11.302  15.801   1.159  0.1514 -0.3621 -0.0383
    1ION     NA71232   7.724   4.291   9.308 -0.3319 -0.0005  0.1492
    1ION     NA71233  18.533  15.791   1.976 -0.1741 -0.1471  0.0288
    1ION     NA71234   6.150   8.287   3.637 -0.0803 -0.1901  0.1475
    1ION     NA71235  22.150   7.474   7.553  0.1157  0.1419 -0.0526
    1ION     NA71236   7.884   4.300   7.230  0.0770 -0.0176 -0.2293
    1ION     NA71237  23.034   6.701   9.246 -0.2577 -0.1804 -0.3092
    1ION     NA71238  11.711   9.081   1.226 -0.1134  0.0464  0.0766
    1ION     NA71239   0.301  10.448   9.387  0.3842  0.2045  0.1192
    1ION     NA71240  18.347  17.793   2.313  0.2931 -0.1303 -0.1849
    1ION     NA71241  17.009  14.208   8.253  0.1570 -0.4454 -0.1250
    1ION     NA71242   8.923   5.302   8.921 -0.0350  0.3450  0.0837
    1ION     NA71243  29.008   3.506   3.026  0.0729 -0.0392 -0.0468
    1ION     NA71244   9.425  17.890   6.498 -0.0506  0.1596 -0.1288
    1ION     NA71245   7.382  20.825   5.899 -0.1329 -0.1322  0.4005
    1ION     NA71246   5.459  10.991   7.691 -0.1990 -0.3856  0.0702
    1ION     NA71247   2.421  23.158   6.549  0.0786  0.0549 -0.0044
    1ION     NA71248   9.268  25.414   0.070 -0.2068  0.2091  0.1110
    1ION     NA71249   0.140  16.061   0.117 -0.0320  0.0681 -0.2106
    1ION     NA71250   0.922   9.432   6.096  0.1658 -0.0585  0.0111
    1ION     NA71251  22.476  21.335   7.788  0.0259  0.3226  0.0158
    1ION     NA71252  21.095  11.623   1.476 -0.4071 -0.0490  0.0238
    1ION     NA71253  20.998  20.108   9.290 -0.0404 -0.3118 -0.0384
    1ION     NA71254   4.703   9.415   7.133  0.2288  0.0963  0.2391
    1ION     NA71255   8.782  17.796   1.926  0.1342 -0.0674  0.0928
    1ION     NA71256   1.502  22.061   5.571  0.1711  0.0468  0.1095
    1ION     NA71257  13.294  29.728   1.414  0.5213 -0.1789 -0.0305
    1ION     NA71258   5.210  20.897   6.143  0.3081  0.2406  0.1601
    1ION     NA71259  21.420  21.239   6.094  0.2567  0.2658 -0.1804
    1ION     NA71260   8.766  19.686   8.562  0.2116  0.1054 -0.0383
    1ION     NA71261   7.664  22.219   8.723  0.2688 -0.2611 -0.1786
    1ION     NA71262  12.719  20.733   0.027  0.0699  0.0425 -0.0329
    1ION     NA71263   5.372  16.656   7.927  0.3864 -0.0378  0.1117
    1ION     NA71264  27.076  21.432   2.655  0.0537 -0.0877 -0.1338
    1ION     NA71265  19.930  12.158   2.188  0.3427  0.2353 -0.1442
    1ION     NA71266  27.622   7.189   1.633  0.1868 -0.3014 -0.0452
    1ION     NA71267   0.845  24.049   2.203 -0.0966 -0.0325  0.1322
    1ION     NA71268  10.773  17.144   9.253  0.0546  0.1212 -0.0609
    1ION     NA71269  13.969  11.109   8.821  0.2441 -0.0246 -0.1237
    1ION     NA71270  24.529   2.641   0.135  0.0471  0.0836 -0.0038
    1ION     NA71271  28.733  23.727   0.800 -0.0991  0.1287 -0.1319
    1ION     NA71272  23.939  24.299   1.207  0.3814  0.0012  0.1573
    1ION     NA71273  11.096   6.301   2.445 -0.0626 -0.0972  0.0764
    1ION     NA71274  23.342   7.453   6.960 -0.5160  0.0241  0.2295
    1ION     NA71275  27.072  17.491   6.130 -0.0200  0.0660 -0.1030
    1ION     NA71276  18.670   7.119   6.919 -0.3167  0.1786  0.1891
    1ION     NA71277  11.792  13.858   6.939  0.0834 -0.3308 -0.0778
    1ION     NA71278  27.143  13.360   8.979 -0.4338  0.1627  0.1326
    1ION     NA71279  18.644  13.130   8.671 -0.4137 -0.1140  0.1142
    1ION     NA71280  19.572   8.653   7.825 -0.0694 -0.2455  0.1292
    1ION     NA71281   0.476  24.290   6.030 -0.0839 -0.2330  0.0536
    1ION     NA71282  23.043   8.979   2.404 -0.1738 -0.1325 -0.0002
    1ION     NA71283   0.206   0.297   8.827 -0.1550  0.0600  0.2630
    1ION     NA71284   5.950  27.612   2.389 -0.3464 -0.1569 -0.0288
    1ION     NA71285   4.238  10.077   6.769 -0.0205  0.0039 -0.0732
    1ION     NA71286  17.360   4.238   2.299  0.2060  0.5703 -0.1056
    1ION     NA71287   5.438   1.096   4.005  0.4402  0.1936  0.2752
    1ION     NA71288  22.309  28.295   1.652 -0.1996 -0.1683 -0.1507
    1ION     NA71289  18.431   0.395   6.580  0.1236 -0.1796 -0.0494
    1ION     NA71290   7.871   9.100   9.143 -0.2876  0.1552  0.2567
    1ION     NA71291  25.175  11.542   6.984  0.1368 -0.4273 -0.0807
    1ION     NA71292  18.940   8.937   2.092 -0.3537 -0.1395  0.3191
    1ION     NA71293  10.348   5.932   3.491 -0.0459 -0.0062 -0.0893
    1ION     NA71294  13.823  17.012   6.710 -0.0739  0.0067 -0.0612
    1ION     NA71295   3.081  18.380   1.464  0.0795 -0.3060 -0.2835
    1ION     NA71296   1.073  13.941   2.018 -0.2213 -0.0633  0.1920
    1ION     NA71297   7.068  27.849   0.177 -0.1286 -0.2711  0.2725
    1ION     NA71298   8.019  25.955   2.004  0.1876 -0.1440  0.1491
    1ION     NA71299   7.420  26.564   2.824  0.4157 -0.0218  0.4653
    1ION     NA71300  18.559  19.409   2.194 -0.1265 -0.1363 -0.3385
    1ION     NA71301  26.251  26.278   6.475  0.2533 -0.0728 -0.0660
    1ION     NA71302  27.635   7.330   8.429 -0.1111 -0.1595  0.0474
    1ION     NA71303  20.909  21.047   9.021  0.5965 -0.3138  0.0132
    1ION     NA71304   1.185   0.646   6.655 -0.1178 -0.1337  0.1485
    1ION     NA71305  13.025   9.502   0.698 -0.0731  0.0009 -0.0000
    1ION     NA71306  21.873  20.970   1.957  0.0503  0.2193 -0.0977
    1ION     NA71307   2.120  15.820   5.262 -0.3492  0.0987 -0.0047
    1ION     NA71308  24.856   3.082   2.778 -0.0878 -0.1175 -0.1820
    1ION     NA71309   2.150  16.341   6.350 -0.0532 -0.1235 -0.0306
    1ION     NA71310   1.885  29.461   0.265 -0.4025 -0.1367 -0.1913
    1ION     NA71311  21.878  20.904   0.952 -0.2083  0.2877  0.0458
    1ION     NA71312   4.642  18.957   5.440 -0.2882 -0.0624 -0.0124
    1ION     NA71313   8.358   2.910   2.319 -0.1052 -0.1783  0.2640
    1ION     NA71314  21.367  13.197   2.260  0.2384  0.2545 -0.1144
    1ION     NA71315  29.426  12.411   0.275 -0.0830 -0.4779  0.3745
    1ION     NA71316  18.885  28.031   2.233  0.3545 -0.0563  0.1233
    1ION     NA71317  27.069   8.569   2.632  0.0416 -0.2235 -0.1319
    1ION     NA71318  11.988  18.467   6.739 -0.2645  0.0225 -0.0502
    1ION     NA71319   7.538  16.263   2.492 -0.2855  0.2417 -0.3353
    1ION     NA71320  17.928   8.379   2.673  0.1149  0.0718  0.1573
    1ION     NA71321  14.969   8.115   1.290 -0.1790 -0.2818 -0.1456
    1ION     NA71322  23.753   5.112   1.326 -0.2369 -0.1236 -0.1768
    1ION     NA71323  27.679  15.475   5.396 -0.0736  0.1754 -0.2382
    1ION     NA71324  20.245  28.672   6.480 -0.2618  0.1333 -0.0233
    1ION     NA71325   6.696  24.843   1.695  0.0351 -0.0551  0.1080
    1ION     NA71326  12.753  24.154   6.501 -0.1604  0.3143 -0.1163
    1ION     NA71327   2.054  20.104   4.961  0.0965 -0.0011  0.1091
    1ION     NA71328  10.882  13.040   9.145  0.1157 -0.0818 -0.0777
    1ION     NA71329  27.022  28.754   8.107 -0.0152  0.1536  0.1995
    1ION     NA71330   9.652  29.343   0.424  0.0290 -0.0290  0.1402
    1ION     NA71331  26.138   3.956   6.372  0.1399  0.0668 -0.0940
    1ION     NA71332  16.727  26.393   0.064 -0.1353  0.0650 -0.0968
    1ION     NA71333  19.253  27.827   3.101  0.0627  0.0426  0.0745
    1ION     NA71334   7.281  19.620   2.300  0.0057  0.0503  0.0281
    1ION     NA71335  13.882  21.109   1.020 -0.0781 -0.1588 -0.5556
    1ION     NA71336  15.313  22.796   6.423  0.0130 -0.2131 -0.0054
    1ION     NA71337  12.684  29.988   0.841  0.3563 -0.0729 -0.0837
    1ION     NA71338   5.565  17.557   5.893  0.0682 -0.0879  0.3899
    1ION     NA71339  27.133   5.565   7.818  0.0846  0.0017  0.1280
    1ION     NA71340   0.060   5.260   8.182  0.0358 -0.0931 -0.0969
    1ION     NA71341  26.135   4.768   7.850 -0.2990  0.1306 -0.1236
    1ION     NA71342  15.151   0.843   8.593 -0.2482  0.0382 -0.0467
    1ION     NA71343  24.177  23.495   7.389  0.4342  0.2539  0.0338
    1ION     NA71344  16.237   7.330   2.953  0.1642 -0.0734  0.1195
    1ION     NA71345  19.917   2.012   6.803  0.0065  0.1613 -0.2306
    1ION     NA71346  21.961  16.653   2.133  0.0439 -0.1461 -0.0018
    1ION     NA71347  19.986   0.732   7.124 -0.0456  0.2850 -0.0981
    1ION     NA71348   9.806   7.212   1.052 -0.3158 -0.4276 -0.1476
    1ION     NA71349   4.510  25.020   0.160 -0.2182 -0.3106  0.1529
    1ION     NA71350   0.285   4.824   3.279 -0.1507  0.0844 -0.3783
    1ION     NA71351  23.399  16.699   9.359 -0.1750 -0.2052  0.0465
    1ION     NA71352   8.502   1.452   1.188  0.1019 -0.0372 -0.0504
    1ION     NA71353  15.653  18.487   6.983 -0.2371 -0.0262 -0.0692
    1ION     NA71354  28.662   2.538   6.493  0.2186 -0.1828  0.0133
    1ION     NA71355  23.685   6.507   8.670  0.0574 -0.1589  0.2405
    1ION     NA71356  28.074   3.480   6.604  0.0835 -0.0553  0.1363
    1ION     NA71357  14.627  28.118   6.503 -0.3792  0.1919 -0.0008
    1ION     NA71358   3.798   0.748   3.771 -0.0663 -0.0261  0.1586
    1ION     NA71359  13.158   6.068   3.489 -0.0113 -0.0477  0.1390
    1ION     NA71360  10.492  22.764   6.022  0.3807 -0.0554 -0.0436
    1ION     NA71361  27.146  10.387   9.248 -0.1810 -0.0646  0.0312
    1ION     NA71362   2.018  16.910   1.802  0.2257 -0.2788 -0.3013
    1ION     NA71363  27.724   0.762   2.578  0.1066 -0.0837  0.0879
    1ION     NA71364  20.199  15.067   2.260  0.3498  0.0276  0.1467
    1ION     NA71365  14.594  20.883   6.786  0.2175  0.0698 -0.1437
    1ION     NA71366   8.725  25.558   0.295 -0.1650  0.0617  0.0282
    1ION     NA71367  26.555  11.619   1.806  0.1012  0.3302 -0.0018
    1ION     NA71368  24.680  15.262   5.285  0.1498  0.0566 -0.0411
    1ION     NA71369  25.725  12.641   0.194  0.4551  0.0346  0.1842
    1ION     NA71370  23.390  12.893   8.119 -0.0570  0.2568  0.0614
    1ION     NA71371  18.529  17.266   6.572  0.1343 -0.0629 -0.0870
    1ION     NA71372  24.299  23.582   8.235 -0.0824 -0.2284  0.0095
    1ION     NA71373   0.096   7.834   1.190 -0.0880  0.1880 -0.0526
    1ION     NA71374  28.735   6.202   0.869  0.2677 -0.1714  0.1977
    1ION     NA71375  15.038  17.213   8.174  0.0542 -0.1987 -0.1563
    1ION     NA71376  24.407   3.021   2.535  0.2757 -0.2015 -0.0299
    1ION     NA71377   8.115  27.950   6.725 -0.1488  0.3940  0.1103
    1ION     NA71378  18.281  13.949   2.235 -0.0987  0.0907  0.0779
    1ION     NA71379  23.900  24.609   2.988  0.2669 -0.3895  0.3904
    1ION     NA71380  20.774  12.375   1.800  0.0785 -0.1115 -0.1223
    1ION     NA71381  22.166   9.438   6.466 -0.4550  0.1937 -0.3882
    1ION     NA71382  12.008   0.466   7.142  0.2628 -0.1977 -0.1124
    1ION     NA71383   1.080   6.912   2.290  0.1119  0.0052  0.1094
    1ION     NA71384   6.762   2.098   3.627  0.0158 -0.0325  0.2507
    1ION     NA71385   2.684  18.669   5.093 -0.0895 -0.1160 -0.0073
    1ION     NA71386   6.098  17.182   1.808  0.0142 -0.0164  0.1303
    1ION     NA71387  23.831   4.824   8.790  0.1498 -0.1859 -0.0752
    1ION     NA71388  10.429   0.086   0.911  0.0248 -0.3423  0.3884
    1ION     NA71389  16.889  11.040   6.710 -0.1630 -0.2404  0.1292
    1ION     NA71390  19.618  14.669   6.325 -0.0971  0.2501  0.0113
    1ION     NA71391  21.087   0.867   1.526  0.1331  0.4447 -0.0556
    1ION     NA71392  27.229  26.804   3.083 -0.0006  0.1719  0.2090
    1ION     NA71393   7.859  17.804   2.203  0.0954  0.1284  0.2101
    1ION     NA71394  24.397  24.011   7.397  0.1217  0.1696  0.0610
    1ION     NA71395  29.589  16.088   5.520  0.0527 -0.0792 -0.0144
    1ION     NA71396  16.241  24.299   8.793 -0.0338  0.2365  0.2711
    1ION     NA71397  11.462  20.844   1.077  0.1159  0.0823  0.2188
    1ION     NA71398   2.184  16.757   8.200  0.2000  0.1212  0.1328
    1ION     NA71399   0.008   4.133   1.760  0.2480 -0.2355  0.0412
    1ION     NA71400  29.092   1.848   2.680  0.0135 -0.1102  0.1728
    1ION     NA71401   8.107   8.453   0.417  0.2429  0.1199  0.2124
    1ION     NA71402  13.803  11.913   2.492  0.2667  0.1782  0.5317
    1ION     NA71403  13.790  22.681   8.464  0.0152  0.1087  0.2481
    1ION     NA71404  21.124  23.850   3.047 -0.1213 -0.1356 -0.2259
    1ION     NA71405  26.007   4.292   0.244  0.1338 -0.0112  0.0557
    1ION     NA71406  25.920  14.994   6.640 -0.0841 -0.0823  0.1884
    1ION     NA71407  11.195  16.322   7.861  0.0460 -0.1422 -0.1335
    1ION     NA71408  17.120  16.668   7.331  0.0226 -0.1776 -0.1467
    1ION     NA71409   9.496  16.349   8.572  0.4078 -0.0929 -0.0878
    1ION     NA71410  28.528  10.984   9.002  0.5318 -0.2636 -0.1534
    1ION     NA71411  16.702   3.107   3.809  0.0948  0.1292  0.1854
    1ION     NA71412  17.946   1.341   8.467  0.0528 -0.0674 -0.0066
    1ION     NA71413   1.154   8.574   6.350  0.0953 -0.2000  0.0858
    1ION     NA71414  22.492  11.045   0.062 -0.4074  0.2474  0.1097
    1ION     NA71415   9.868  26.062   2.386 -0.0287  0.2658 -0.3369
    1ION     NA71416  13.050  12.306   0.808  0.0531  0.0569  0.1665
    1ION     NA71417  30.022   7.216   9.380 -0.0434 -0.2293 -0.0564
    1ION     NA71418  20.845  20.606   6.312 -0.0298 -0.2701  0.0974
    1ION     NA71419   0.034  26.243   7.862  0.0456 -0.1305  0.0634
    1ION     NA71420  19.355  10.978   2.367 -0.2919 -0.0461  0.1570
    1ION     NA71421   5.738  25.962   5.923 -0.3218 -0.0082 -0.0095
    1ION     NA71422  26.345   6.740   6.322 -0.1798 -0.3496  0.1022
    1ION     NA71423   1.389  16.782   7.500 -0.0960  0.0414 -0.0271
    1ION     NA71424   0.800  18.122   7.355 -0.2217  0.3574 -0.1675
    1ION     NA71425  27.654   6.035   1.846  0.0480  0.0858  0.2405
    1ION     NA71426  27.094  18.160   2.060 -0.0033 -0.2189  0.2598
    1ION     NA71427  13.584   5.728   8.471  0.2974  0.1172  0.1196
    1ION     NA71428   4.327  26.454   7.267  0.3370 -0.1162 -0.2233
    1ION     NA71429  13.917   7.383   3.834  0.2822  0.0598  0.6184
    1ION     NA71430  11.108   4.727   7.660  0.1292 -0.2462  0.3440
    1ION     NA71431  28.906  13.667   5.577  0.3225 -0.2630  0.0406
    1ION     NA71432   2.236   5.496   8.723 -0.0657  0.2065  0.0024
    1ION     NA71433  28.037  29.284   0.067  0.2708  0.1762 -0.1231
    1ION     NA71434  20.510   2.268   1.729 -0.3133 -0.1758  0.1177
    1ION     NA71435   2.416  13.835   8.750  0.0622  0.0627  0.4025
    1ION     NA71436   7.482  10.607   1.125  0.1267  0.2422 -0.1689
    1ION     NA71437   4.329  19.879   6.836 -0.1704  0.1338  0.0127
    1ION     NA71438   5.706  14.006   7.511  0.1939 -0.1620  0.1855
    1ION     NA71439  29.872  22.143   5.984 -0.1954  0.2836  0.3717
    1ION     NA71440  25.972   7.362   0.955 -0.0320  0.0925  0.0662
    1ION     NA71441   3.520   6.923   6.952 -0.0828 -0.1922  0.1409
    1ION     NA71442  28.394   2.723   7.057  0.2842 -0.2274 -0.1400
    1ION     NA71443  15.325  24.500   6.885 -0.0532 -0.0958  0.5047
    1ION     NA71444   9.389  21.908   2.118 -0.1264  0.0941  0.4343
    1ION     NA71445  20.381   6.466   7.302 -0.0819 -0.1155 -0.1304
    1ION     NA71446  13.523  26.310   7.806 -0.1123 -0.0691 -0.1774
    1ION     NA71447   9.111  25.135   6.252  0.2825  0.1577  0.0545
    1ION     NA71448  15.020  28.556   7.362 -0.0438  0.2174 -0.1246
    1ION     NA71449   7.601  14.271   0.203  0.0399  0.2234  0.1513
    1ION     NA71450   6.802  17.427   8.139  0.1979 -0.2705 -0.0843
    1ION     NA71451  16.020   1.678   8.080  0.0983  0.1054  0.2470
    1ION     NA71452   7.259   2.319   0.882 -0.0175 -0.0264  0.2306
    1ION     NA71453  10.963   3.864   2.544 -0.0502 -0.1564  0.2174
    1ION     NA71454   5.230  22.731   9.042 -0.1679 -0.0614 -0.0762
    1ION     NA71455  10.844  15.545   9.026  0.0924 -0.2207  0.1409
    1ION     NA71456   7.351   1.822   8.768  0.0488 -0.1519  0.1589
    1ION     NA71457  18.439  14.123   7.362 -0.0896 -0.1587 -0.1796
    1ION     NA71458  25.051  29.078   3.228  0.0207  0.5105  0.0033
    1ION     NA71459  18.701  16.293   6.596 -0.2182  0.1107 -0.0004
    1ION     NA71460   6.739  12.621   3.434 -0.2127 -0.0620 -0.0041
    1ION     NA71461  29.901   2.304   7.089 -0.1923  0.0186 -0.0196
    1ION     NA71462  15.261  14.734   6.838 -0.0941 -0.0932  0.3900
    1ION     NA71463   3.751  15.359   6.302  0.4118 -0.1149 -0.1448
    1ION     NA71464  21.123   9.109   0.110 -0.0564 -0.0625  0.1338
    1ION     NA71465   2.938   2.290   6.832 -0.3267 -0.2366 -0.0099
    1ION     NA71466  11.067   5.020   2.098 -0.0417  0.0379  0.3197
    1ION     NA71467  29.159   3.247   0.958 -0.2823  0.1757 -0.2305
    1ION     NA71468  11.236  18.105   9.125  0.0309 -0.4710  0.0979
    1ION     NA71469  28.803  21.462   2.534 -0.0386  0.0933 -0.0808
    1ION     NA71470  28.223  15.292   7.690  0.2888 -0.1186 -0.2414
    1ION     NA71471  24.353  29.527   2.745 -0.0665  0.2218 -0.0853
    1ION     NA71472  22.833   4.733   2.555  0.2728  0.0236 -0.2297
    1ION     NA71473  20.010  28.170   2.340  0.0090 -0.2605  0.0422
    1ION     NA71474   5.001  20.889   7.070 -0.0455  0.0165  0.0732
    1ION     NA71475   9.536   3.709   1.963  0.1309 -0.0244  0.2540
    1ION     NA71476  28.376  10.561   6.452  0.2043  0.1586  0.0737
    1ION     NA71477  14.953  28.122   3.192 -0.1165  0.1145 -0.0317
    1ION     NA71478  13.457   7.521   7.970  0.0464  0.1514  0.1664
    1ION     NA71479   1.487   1.136   0.189 -0.0277 -0.2267 -0.2227
    1ION     NA71480  29.041   9.735   9.230  0.1078 -0.2393 -0.1529
    1ION     NA71481   1.963   0.958   0.601 -0.2445 -0.0399 -0.0832
    1ION     NA71482  28.684   7.637   8.525  0.0480 -0.2174 -0.0963
    1ION     NA71483   2.988   6.308   0.933  0.1867 -0.0702 -0.1004
    1ION     NA71484   8.825   2.557   2.877 -0.1100 -0.0900  0.0888
    1ION     NA71485   0.448  16.886   1.701  0.3381 -0.1829  0.1090
    1ION     NA71486  27.214  12.457   9.188  0.0074  0.1559  0.2948
    1ION     NA71487   5.940  25.097   7.078  0.0759 -0.2219  0.0350
    1ION     NA71488   8.411   9.194   2.685  0.1756  0.3558  0.0357
    1ION     NA71489   2.428  24.458   8.829 -0.3161  0.0010  0.0479
    1ION     NA71490  10.247   3.802   7.719  0.1624  0.1211  0.1000
    1ION     NA71491  18.713   7.061   0.428  0.0797 -0.1477  0.0057
    1ION     NA71492  29.215  16.900   1.384  0.1070 -0.1252  0.4656
    1ION     NA71493  23.421  22.917   1.813 -0.1239 -0.0939 -0.1064
    1ION     NA71494   0.559   1.694   8.432 -0.2059 -0.3043 -0.1560
    1ION     NA71495  27.118  10.052   7.843  0.1166 -0.1658  0.1252
    1ION     NA71496  25.159  14.151   1.926 -0.1624 -0.0728  0.2287
    1ION     NA71497  29.906  17.913   5.686 -0.1795 -0.0521  0.0357
    1ION     NA71498   5.015   3.844   8.257  0.1307  0.0343  0.3459
    1ION     NA71499  23.299  29.694   3.192  0.3391  0.3517 -0.1063
    1ION     NA71500   0.380  23.697   1.522  0.1122  0.0038  0.1028
    1ION     NA71501  17.002  23.420   0.950  0.2329  0.2897  0.0456
    1ION     NA71502   5.656   8.455   8.135 -0.2338 -0.0003 -0.0359
    1ION     NA71503  14.280  22.297   8.956  0.0640 -0.1113  0.0037
    1ION     NA71504  15.160  21.900   2.357  0.0119 -0.1764  0.1632
    1ION     NA71505  20.570  11.495   6.819 -0.3458  0.1294 -0.3289
    1ION     NA71506   8.549   1.808   7.858  0.0941  0.0428  0.0474
    1ION     NA71507   2.716  16.509   7.386 -0.1121 -0.0249 -0.0238
    1ION     NA71508  13.370   4.563   7.298 -0.1742  0.1631 -0.1285
    1ION     NA71509  17.183  20.739   8.262  0.0591 -0.1126  0.0419
    1ION     NA71510  29.232  25.181   6.266  0.1166 -0.0015 -0.4136
    1ION     NA71511  15.691  16.460   2.374  0.3251 -0.1062 -0.1595
    1ION     NA71512   8.541  24.668   9.134  0.2441  0.0401 -0.0475
    1ION     NA71513  24.149  13.064   0.625 -0.1187 -0.3534  0.0020
    1ION     NA71514   5.338  22.959   7.596 -0.0806 -0.1096 -0.1943
    1ION     NA71515  22.153   4.117   6.729  0.0488  0.3879  0.0865
    1ION     NA71516  15.708  25.142   8.710 -0.0599  0.0646  0.0742
    1ION     NA71517  10.322  10.050   3.672  0.2462 -0.1121 -0.2876
    1ION     NA71518   6.065  29.728   9.278 -0.0942  0.0053 -0.0349
    1ION     NA71519   8.787  15.794   2.623  0.0047  0.0535  0.0179
    1ION     NA71520  23.409  28.003   8.918  0.1383  0.0654  0.0796
    1ION     NA71521  25.431  29.585   8.902  0.1095  0.1545  0.2173
    1ION     NA71522   7.297  21.640   8.259 -0.0933 -0.2225 -0.0172
    1ION     NA71523  10.853   0.385   3.595  0.0982 -0.0988 -0.1265
    1ION     NA71524  24.550   1.541   6.979  0.1039 -0.0575 -0.1906
    1ION     NA71525   2.462  24.687   5.772  0.0353 -0.3053 -0.0258
    1ION     NA71526  26.290  19.990   2.356 -0.3517  0.0816 -0.0389
    1ION     NA71527  17.395  15.932   7.776  0.2156 -0.0958 -0.0075
    1ION     NA71528   6.743  26.191   2.341  0.1844 -0.2055  0.1460
    1ION     NA71529   3.954   0.547   1.005 -0.1539 -0.1040 -0.2406
    1ION     NA71530   8.426   5.994   7.008  0.1387 -0.1027  0.0562
    1ION     NA71531   3.212  24.651   7.008 -0.0794  0.0304 -0.0545
    1ION     NA71532  17.860  14.571   8.168  0.0717 -0.2616  0.0111
    1ION     NA71533   0.028  23.970   0.651  0.2813  0.0756  0.0294
    1ION     NA71534   4.344  23.266   7.779 -0.3106 -0.2143 -0.1505
    1ION     NA71535  11.512   9.041   7.562 -0.2799 -0.3663 -0.4193
    1ION     NA71536  26.314  29.625   6.364  0.1097  0.0856 -0.2239
    1ION     NA71537  26.115  12.658   1.078  0.3729  0.2015 -0.0071
    1ION     NA71538  25.654  25.286   6.288 -0.3868 -0.2321 -0.2442
    1ION     NA71539  24.158  13.268   6.318 -0.2964 -0.3399  0.1568
    1ION     NA71540   4.042   4.821   1.146  0.0469  0.1475  0.0860
    1ION     NA71541  19.292  24.856   3.111  0.0311 -0.0639  0.1537
    1ION     NA71542  14.724  19.370   8.910 -0.0591 -0.0378 -0.4791
    1ION     NA71543   4.887   2.855   8.728 -0.2531 -0.1803 -0.1669
    1ION     NA71544  14.116  28.038   8.202 -0.1396 -0.0325  0.1352
    1ION     NA71545  26.926  22.592   8.568 -0.2048 -0.3934  0.0431
    1ION     NA71546  14.752  26.481   7.454 -0.3254  0.0087 -0.1062
    1ION     NA71547  17.892   2.783   3.461  0.0028  0.2370 -0.0583
    1ION     NA71548  15.643  16.760   0.879  0.1272  0.0629  0.0680
    1ION     NA71549  10.526   1.289   3.809  0.0002 -0.0109  0.1139
    1ION     NA71550  22.661   1.187   1.720  0.0970  0.1599 -0.1121
    1ION     NA71551  21.385  19.085   7.380  0.3386  0.2897  0.0210
    1ION     NA71552  27.808  18.090   1.016  0.1234  0.2628 -0.0099
    1ION     NA71553   3.232   8.823   2.710  0.3266  0.1078 -0.0382
    1ION     NA71554  20.400  25.611   1.137  0.0541 -0.1164  0.4087
    1ION     NA71555  22.603   8.550   6.372  0.0895 -0.0905 -0.1749
    1ION     NA71556  26.262  10.422   9.206  0.2271 -0.0106 -0.0715
    1ION     NA71557  17.690   7.178   8.699  0.1095 -0.0422  0.0305
    1ION     NA71558  27.029   4.268   2.974 -0.1851  0.3208 -0.2646
    1ION     NA71559  14.683  12.470   7.209 -0.1684  0.0648 -0.1412
    1ION     NA71560  18.651  18.212   0.581  0.0532  0.0054  0.0179
    1ION     NA71561   9.078  19.461   6.442 -0.0568  0.0300 -0.0546
    1ION     NA71562  23.989  24.005   6.180 -0.2444  0.2139  0.1400
    1ION     NA71563  27.817  29.704   8.673  0.0688  0.0891  0.0214
    1ION     NA71564  23.258  15.169   0.179  0.1204  0.0996  0.3125
    1ION     NA71565  25.715   1.103   0.535 -0.0804 -0.1696 -0.1802
    1ION     NA71566  24.246  18.410   1.333  0.2278 -0.1371  0.0593
    1ION     NA71567  18.832  20.362   0.671  0.1118  0.1878  0.0051
    1ION     NA71568   3.927   4.587   8.344  0.0351  0.0207 -0.0692
    1ION     NA71569  17.604   9.339   1.078 -0.1272  0.1101  0.5113
    1ION     NA71570   3.374   0.588   0.276  0.0670  0.0022  0.0242
    1ION     NA71571  16.139  14.576   6.726 -0.0345 -0.1401 -0.2631
    1ION     NA71572  28.944  20.343   5.554 -0.2853 -0.3228 -0.2302
    1ION     NA71573   6.467  20.411   1.234  0.1468  0.0826 -0.1547
    1ION     NA71574   4.634  19.299   8.834  0.2597  0.1680 -0.0636
    1ION     NA71575  17.189   9.406   0.332  0.1423 -0.0646 -0.1476
    1ION     NA71576  24.887   0.201   0.581  0.0725  0.1768  0.0311
    1ION     NA71577  20.437  14.648   6.458  0.0417  0.0059  0.0148
    1ION     NA71578  12.057  20.005   2.638  0.0980  0.0285  0.1142
    1ION     NA71579   3.701  14.546   2.199 -0.0957  0.1247 -0.0396
    1ION     NA71580  29.459  10.040   6.860  0.2602  0.0524  0.1307
    1ION     NA71581  20.712   6.128   9.098  0.0597  0.1698 -0.0990
    1ION     NA71582  21.979  26.558   1.481 -0.0109 -0.1352 -0.1233
    1ION     NA71583  13.066  27.464   8.287  0.0115  0.0429 -0.1039
    1ION     NA71584   8.159   4.386   0.778 -0.1234 -0.1199 -0.2349
    1ION     NA71585   4.658  15.459   1.748 -0.1388 -0.2169 -0.1789
    1ION     NA71586   1.486  12.660   8.282 -0.3479 -0.0368  0.1334
    1ION     NA71587  16.135   2.876   3.705 -0.3667 -0.0049  0.0669
    1ION     NA71588   6.097  21.381   7.895  0.0105 -0.0044  0.0384
    1ION     NA71589  15.751  18.212   9.014  0.4186  0.0274 -0.0806
    1ION     NA71590  23.917  25.855   6.760  0.2207  0.3062  0.1399
    1ION     NA71591  16.710  22.152   2.600  0.1261  0.1582  0.0165
    1ION     NA71592  12.420  15.085   2.114 -0.1000 -0.1492 -0.2425
    1ION     NA71593  29.697  15.069   1.664 -0.2439 -0.0131  0.0384
    1ION     NA71594   0.610  27.477   0.935 -0.1445  0.1720  0.1076
    1ION     NA71595  16.268  21.759   0.295 -0.0276  0.1157  0.1547
    1ION     NA71596  10.197  23.843   5.807 -0.2908  0.3063 -0.0226
    1ION     NA71597   2.171  13.951   7.069 -0.3658 -0.2503 -0.0820
    1ION     NA71598  23.410  25.273   9.079 -0.1510 -0.0046 -0.3332
    1ION     NA71599   1.624  13.627   1.539 -0.0509 -0.1819  0.0322
    1ION     NA71600  15.674   3.879   8.187  0.2165 -0.1752  0.1291
    1ION     NA71601   3.819  28.701   3.476  0.1820  0.2071  0.0893
    1ION     NA71602   3.956   2.589   1.036  0.2704  0.0654 -0.1405
    1ION     NA71603  25.533   9.515   2.479 -0.1889  0.1929  0.1410
    1ION     NA71604   3.726  11.707   6.462 -0.0548 -0.0071  0.0362
    1ION     NA71605  13.829  12.327   7.441 -0.0912 -0.2601  0.0339
    1ION     NA71606  16.323  20.535   1.641 -0.1955 -0.1326 -0.4166
    1ION     NA71607  20.765  18.814   8.314  0.3362 -0.4531  0.1323
    1ION     CL71608  27.196   6.895   2.286 -0.2565  0.0143  0.3584
    1ION     CL71609  12.653  10.752   1.956  0.2181  0.1496  0.1794
    1ION     CL71610   6.051  14.468   8.341  0.0042 -0.0952 -0.0151
    1ION     CL71611  11.628  12.181   9.068 -0.0581  0.3498  0.1413
    1ION     CL71612  17.089  18.200   8.443  0.0674 -0.0260  0.0574
    1ION     CL71613   2.066   6.155   9.216  0.1069 -0.2951 -0.0921
    1ION     CL71614   9.510  20.967   1.564 -0.1058 -0.1396  0.0560
    1ION     CL71615   2.522  14.843   8.926 -0.2047  0.2609 -0.1091
    1ION     CL71616   2.552   4.634   1.472 -0.2040 -0.2185 -0.0779
    1ION     CL71617  19.825  29.436   0.323 -0.0033 -0.0342 -0.0956
    1ION     CL71618  22.536   7.511   7.188  0.3102 -0.2291  0.0577
    1ION     CL71619  10.735   1.878   8.379  0.3143  0.0430  0.4097
    1ION     CL71620   5.762  20.794   6.309 -0.2284  0.1050 -0.2930
    1ION     CL71621  30.114  16.983   1.324 -0.2333 -0.0840  0.2707
    1ION     CL71622  23.146  25.606   2.628  0.1997  0.2877 -0.1303
    1ION     CL71623   2.363  21.643   1.221 -0.4378 -0.2501 -0.2522
    1ION     CL71624   6.831  17.672   8.647  0.3533 -0.2714 -0.0646
    1ION     CL71625  29.730   3.070   7.275 -0.1449  0.0810  0.2518
    1ION     CL71626   6.973   1.945   1.094  0.0838  0.0596  0.1001
    1ION     CL71627  23.728  28.879   2.764  0.0488 -0.0310  0.2467
    1ION     CL71628  28.299   2.963   6.616  0.0122 -0.1554  0.1446
    1ION     CL71629  16.876   0.716   8.459 -0.0669  0.2545 -0.1210
    1ION     CL71630   0.498  15.379   6.288 -0.0140  0.1488 -0.0167
    1ION     CL71631   5.598  26.334   6.555 -0.0966 -0.0090 -0.1363
    1ION     CL71632  26.221   7.381   7.405  0.0343 -0.0688 -0.0176
    1ION     CL71633  13.909   6.049   8.337  0.1688  0.0445  0.1811
    1ION     CL71634  29.459  25.210   7.070 -0.0802 -0.1824 -0.0023
    1ION     CL71635   2.256  16.723   7.583 -0.2345 -0.2152  0.0484
    1ION     CL71636  22.679   5.800   9.279 -0.0103 -0.1874  0.2079
    1ION     CL71637  15.578   1.899   7.858 -0.1274 -0.1566  0.1806
    1ION     CL71638  24.102  23.281   7.842  0.1412 -0.0623 -0.1126
    1ION     CL71639   4.339   0.562   8.157  0.0062  0.1510 -0.0576
    1ION     CL71640  19.715  26.053   2.644 -0.1248  0.2562  0.2248
    1ION     CL71641   7.747  16.124   2.002 -0.0059  0.0000 -0.0141
    1ION     CL71642   2.801  20.063   6.537  0.0153 -0.1992  0.1727
    1ION     CL71643   7.932   0.084   2.458  0.1926 -0.0293  0.1947
    1ION     CL71644   0.805  14.556   1.302  0.1101  0.2167  0.0333
    1ION     CL71645   5.938  25.899   1.225  0.0953  0.0834 -0.0726
    1ION     CL71646  19.090  20.798   0.767 -0.1092  0.0925  0.0332
    1ION     CL71647  16.167  14.318   8.681 -0.1052 -0.0691  0.0167
    1ION     CL71648   7.983   9.006   2.786 -0.1663 -0.1510  0.0424
    1ION     CL71649  29.515  13.796   1.952 -0.0430  0.0358 -0.3157
    1ION     CL71650  18.075  14.779   8.560 -0.0279  0.3505 -0.0113
    1ION     CL71651   2.266  20.914   5.366 -0.0812 -0.1540 -0.0883
    1ION     CL71652  25.977  12.741   0.600  0.0244  0.1029 -0.0760
    1ION     CL71653  27.179  21.549   7.680 -0.0640 -0.0640 -0.3074
    1ION     CL71654  23.276  13.083   8.583 -0.2134 -0.2443  0.0208
    1ION     CL71655   8.120   1.560   2.476 -0.1394 -0.0915 -0.2938
    1ION     CL71656  26.846   7.535   1.582  0.0065 -0.3653  0.0237
    1ION     CL71657  23.447  27.066   2.800 -0.1887 -0.0699  0.3086
    1ION     CL71658  26.594  20.602   6.602 -0.3504  0.2794  0.0507
    1ION     CL71659   9.578  17.588   2.265  0.2169 -0.4242 -0.1532
    1ION     CL71660  10.042   2.023   7.574 -0.2299 -0.3627 -0.1899
    1ION     CL71661  13.854  22.520   8.936  0.2070  0.1126 -0.1592
    1ION     CL71662   7.576  23.753   8.654  0.1216 -0.2418 -0.1785
    1ION     CL71663  17.916   3.102   7.950  0.0199 -0.1190  0.2164
    1ION     CL71664   6.131  25.485   6.814  0.1206  0.0052  0.0328
    1ION     CL71665  18.857  22.372   8.642 -0.1149  0.1152  0.0582
    1ION     CL71666  26.744  19.512   8.800  0.0120 -0.2304  0.0953
    1ION     CL71667   2.656  21.792   8.992 -0.0001  0.0075 -0.3471
    1ION     CL71668   4.165  17.799   6.386 -0.0945 -0.1118 -0.1923
    1ION     CL71669   4.062  28.977   2.999  0.4691  0.3044 -0.1595
    1ION     CL71670  20.355   3.075   7.762  0.0034 -0.0114 -0.0039
    1ION     CL71671  11.309   9.250   8.435 -0.1416 -0.4529 -0.1610
    1ION     CL71672  29.263  29.856   9.308  0.1672 -0.2963  0.1119
    1ION     CL71673   1.225  28.579   1.248 -0.1956 -0.2153 -0.0137
    1ION     CL71674  23.838   9.082   6.836 -0.1150 -0.2404 -0.1019
    1ION     CL71675  11.223  13.977   8.452  0.2028 -0.1291  0.1468
    1ION     CL71676   2.892   7.118   8.824  0.2386 -0.1010  0.2161
    1ION     CL71677   2.731  10.115   2.141  0.3271 -0.0554  0.0612
    1ION     CL71678  17.168  18.217   0.142  0.1674  0.0841 -0.0135
    1ION     CL71679   4.853   4.594   8.703 -0.1399 -0.1051  0.1561
    1ION     CL71680  28.919   3.063   7.592 -0.0943 -0.2459 -0.1306
    1ION     CL71681   7.847   5.129   0.021 -0.1167  0.0424 -0.2543
    1ION     CL71682  23.326   7.053   2.521  0.0211 -0.1441  0.2673
    1ION     CL71683   5.785   0.006   1.638 -0.2132 -0.3058 -0.0856
    1ION     CL71684   1.907  15.888   0.076  0.1066  0.2532 -0.0472
    1ION     CL71685  11.137  13.485   9.228 -0.0713 -0.3439  0.1537
    1ION     CL71686  19.628  29.730   2.405  0.1937 -0.2431 -0.0806
    1ION     CL71687  13.725  26.158   1.952  0.1052 -0.0285 -0.1257
    1ION     CL71688  18.788  18.570   0.281 -0.0071 -0.1036  0.0807
    1ION     CL71689  29.553   7.272   1.410 -0.1628  0.0644  0.0252
    1ION     CL71690  16.346  25.294   0.335 -0.2041  0.2387  0.0400
    1ION     CL71691  11.077  27.366   0.557 -0.0300 -0.0721 -0.0319
    1ION     CL71692   4.273  22.290   8.764  0.2259 -0.2350  0.2448
    1ION     CL71693  11.383   7.657   1.912  0.3739  0.1637  0.2075
    1ION     CL71694  21.846   9.873   1.447 -0.0235  0.1537 -0.0671
    1ION     CL71695  16.786   3.010   2.917  0.0709  0.0558  0.0126
    1ION     CL71696  27.396  15.121   9.371 -0.1435  0.0261  0.1734
    1ION     CL71697  12.316   6.235   0.847 -0.0647 -0.1018  0.0037
    1ION     CL71698  21.825  29.527   7.652  0.1412  0.1446 -0.0337
    1ION     CL71699  20.256   9.681   0.947 -0.0597 -0.3717  0.1597
    1ION     CL71700   6.352  27.288   2.221 -0.0706  0.1662 -0.0092
    1ION     CL71701  17.175  16.413   7.763 -0.0888  0.0149 -0.0565
    1ION     CL71702  13.255  24.744   0.991  0.0750  0.1340 -0.3660
    1ION     CL71703   1.257  20.626   0.219  0.0302 -0.0398  0.1481
    1ION     CL71704  27.781  16.011   6.928  0.0821 -0.0296  0.2537
    1ION     CL71705  17.390  23.897   2.006  0.0207 -0.1057 -0.0973
    1ION     CL71706   0.252  22.153   1.007 -0.0775 -0.1429 -0.1407
    1ION     CL71707  29.290  12.845   0.520  0.0691  0.1161  0.0977
    1ION     CL71708   1.388  18.683   6.230 -0.1167 -0.1600  0.0265
    1ION     CL71709  11.698  16.847   7.651  0.3641  0.2958 -0.1245
    1ION     CL71710  25.101  14.899   6.092 -0.1583  0.1665  0.1237
    1ION     CL71711  13.624   2.891   7.828 -0.3053 -0.4117 -0.0251
    1ION     CL71712  10.830  19.980   1.782 -0.2503 -0.0949  0.0540
    1ION     CL71713  20.810  22.079   7.670 -0.0167 -0.2918  0.0057
    1ION     CL71714   5.431   6.405   8.120  0.1692  0.0577  0.0958
    1ION     CL71715  29.902  21.372   1.699  0.1047 -0.0245 -0.0713
    1ION     CL71716   5.652  21.302   8.703 -0.0166 -0.0340 -0.1751
    1ION     CL71717   8.484   2.914   1.425 -0.2128  0.2945 -0.0097
    1ION     CL71718   7.919   0.249   7.666  0.2705  0.0070  0.0849
    1ION     CL71719  13.961  12.189   2.079 -0.0905  0.3933 -0.2686
    1ION     CL71720   8.340  11.891   9.198 -0.0473 -0.2430 -0.3310
    1ION     CL71721   5.642  23.315   7.850  0.2058  0.2430 -0.3451
    1ION     CL71722   1.263  29.414   2.555 -0.1267  0.1164 -0.2475
    1ION     CL71723   5.879  13.683   7.915 -0.0167 -0.2233 -0.1338
    1ION     CL71724   1.789   3.680   2.436  0.0785  0.5487 -0.0373
    1ION     CL71725  20.914  20.286   0.913 -0.1357  0.0558 -0.2693
    1ION     CL71726  13.410  19.380   7.783 -0.0759 -0.3286  0.3036
    1ION     CL71727   2.228   7.236   1.848 -0.0002  0.2778  0.1737
    1ION     CL71728  25.885  14.941   6.155  0.0138  0.2350  0.1282
    1ION     CL71729   5.097  10.750   7.435  0.2580  0.0737  0.1839
    1ION     CL71730  10.421  12.978   7.996 -0.2682 -0.3187 -0.0983
    1ION     CL71731  23.755  16.522   0.211  0.0201  0.1617  0.1726
    1ION     CL71732  20.547  13.669   8.884 -0.1620  0.0186  0.2874
    1ION     CL71733  22.848  11.238   7.273 -0.0424  0.0584  0.1078
    1ION     CL71734  29.347  11.972   9.395 -0.2526 -0.1066  0.0162
    1ION     CL71735  16.375  13.763   7.780 -0.2219  0.1968 -0.1509
    1ION     CL71736  16.927  10.407   8.215  0.0133 -0.0684  0.2543
    1ION     CL71737  13.996  29.653   2.726  0.0906  0.1252  0.1161
    1ION     CL71738  20.672   1.880   2.196  0.1488 -0.1344 -0.1421
    1ION     CL71739   8.247  18.314   7.069 -0.4806 -0.1662 -0.1351
    1ION     CL71740   2.402  20.966   8.743 -0.4346 -0.2350 -0.0053
    1ION     CL71741  15.483  25.691   8.683  0.0542  0.1169  0.0652
    1ION     CL71742  13.253   9.872   0.976 -0.1183 -0.1827 -0.1256
    1ION     CL71743  21.514   7.131   2.261  0.0540  0.1846 -0.1418
    1ION     CL71744   9.844  27.206   1.255  0.0579 -0.2337 -0.0064
    1ION     CL71745  21.316  28.531   2.658  0.4517 -0.0906  0.0752
    1ION     CL71746  22.882   6.214   2.481  0.0361 -0.0273 -0.1160
    1ION     CL71747  14.135  23.119   8.262 -0.2295 -0.0395 -0.1684
    1ION     CL71748   3.980  26.206   6.945 -0.3244  0.0632 -0.1949
    1ION     CL71749  10.216   1.992   0.912 -0.0876  0.1356 -0.1613
    1ION     CL71750  12.276   7.978   2.105  0.1166 -0.1292 -0.0532
    1ION     CL71751  11.464  20.754   1.721  0.4442  0.1533 -0.1479
    1ION     CL71752  25.696  24.451   7.872  0.1359  0.0869 -0.1684
    1ION     CL71753   9.154  25.532   1.668 -0.0737  0.0979  0.0750
    1ION     CL71754  27.079   9.859   1.403  0.0581 -0.1950 -0.1876
    1ION     CL71755   6.914  26.001   6.588 -0.0125  0.0726  0.0010
    1ION     CL71756  18.281  27.033   8.450  0.2036  0.0276  0.4731
    1ION     CL71757   7.900   9.936   0.320  0.0332  0.2157  0.0609
    1ION     CL71758  11.379  19.254   8.345  0.0314 -0.0745  0.0202
    1ION     CL71759  20.979   2.362   6.938 -0.2982 -0.0710  0.0734
    1ION     CL71760  21.186   9.054   9.019 -0.0396  0.0827 -0.0236
    1ION     CL71761   3.060  24.207   7.185  0.2449  0.0544  0.1028
    1ION     CL71762  11.392   4.054   2.745 -0.0196  0.0629  0.0165
    1ION     CL71763   3.114   8.977   7.346  0.0118 -0.1114  0.1689
    1ION     CL71764  22.251  26.089   2.752  0.0623 -0.2202  0.1085
    1ION     CL71765  18.336  27.215   2.461 -0.3450 -0.0467 -0.0315
    1ION     CL71766  24.844   0.805   1.536 -0.1601 -0.1910 -0.1357
    1ION     CL71767   2.520  18.223   5.940  0.0502  0.1170 -0.2175
    1ION     CL71768   6.141  10.788   0.108  0.2429 -0.0984 -0.0293
    1ION     CL71769   6.952  21.397   7.814  0.0912  0.1577 -0.1290
    1ION     CL71770  19.223  18.450   1.564 -0.0624  0.0215 -0.1414
    1ION     CL71771  23.911  21.615   1.763  0.2986  0.0370  0.1548
    1ION     CL71772   7.335  22.922   1.226  0.2524 -0.1744  0.1516
    1ION     CL71773   7.693  15.443   7.523 -0.2290 -0.0475 -0.2382
    1ION     CL71774  17.544  16.526   7.057 -0.0230  0.0710  0.0598
    1ION     CL71775  11.800  23.672   0.946  0.3618 -0.0167 -0.0470
    1ION     CL71776  29.002   3.873   8.552  0.1705 -0.1625 -0.1294
    1ION     CL71777  17.978  16.917   1.456  0.3622 -0.1129  0.1110
    1ION     CL71778  26.600  25.297   8.856 -0.1386  0.0899  0.0836
    1ION     CL71779   6.880   3.304   8.154 -0.0684 -0.0031 -0.4172
    1ION     CL71780  28.083  12.323   5.992 -0.0515 -0.1202  0.1720
    1ION     CL71781   5.105   0.114   7.970 -0.1567 -0.1816  0.0606
    1ION     CL71782  23.514   6.403   9.315  0.0436  0.1494 -0.2417
    1ION     CL71783   1.902   3.090   7.261 -0.4389 -0.0810  0.3634
    1ION     CL71784   4.297   3.001   2.433 -0.1064 -0.0790 -0.2819
    1ION     CL71785   5.021  21.392   6.112 -0.0400 -0.1143 -0.0261
    1ION     CL71786  23.510   1.550   7.060  0.0829  0.1549 -0.1227
    1ION     CL71787   7.215   7.364   1.701 -0.1432  0.2017  0.0547
    1ION     CL71788   0.629  22.729   6.157  0.0849  0.0135  0.1621
    1ION     CL71789   6.782  28.412   7.683 -0.1105 -0.0690  0.0140
    1ION     CL71790  11.222  29.069   2.756  0.0053  0.2940  0.1297
    1ION     CL71791  25.958  20.707   8.520  0.2192  0.2657 -0.0137
    1ION     CL71792   9.547   4.231   1.951  0.1591  0.2712  0.3248
    1ION     CL71793  13.941   9.694   7.996  0.0825  0.0518 -0.4180
    1ION     CL71794  28.915  27.552   2.414 -0.1570 -0.1813 -0.1260
    1ION     CL71795  16.668   2.188   7.867  0.4046  0.1526  0.1925
    1ION     CL71796  26.619  12.630   1.171 -0.2126  0.2446 -0.0204
    1ION     CL71797  21.394   2.488   7.483 -0.0862 -0.4675 -0.0041
    1ION     CL71798  29.851   5.405   7.826 -0.0742  0.2059  0.1540
    1ION     CL71799  17.351  14.201   8.610  0.1910 -0.0298 -0.1232
    1ION     CL71800  15.419   6.400   8.601  0.0095  0.1250 -0.1139
    1ION     CL71801  14.413  26.074   7.374 -0.3056  0.3772 -0.2188
    1ION     CL71802  22.417  22.151   8.465 -0.4307 -0.1874 -0.1205
    1ION     CL71803   8.238  26.047   6.827  0.1058 -0.0275  0.0501
    1ION     CL71804  23.141   0.788   7.284  0.3114 -0.0755 -0.0199
    1ION     CL71805  28.694  26.703   0.769  0.0824 -0.1977  0.0411
    1ION     CL71806   2.013   1.195   0.102 -0.0573  0.0231  0.2725
    1ION     CL71807  27.666  19.161   6.508  0.2241 -0.1328 -0.1872
    1ION     CL71808  18.588  15.342   8.196 -0.0442  0.2196  0.0004
    1ION     CL71809   8.428  25.728   0.674 -0.0213  0.0918  0.0956
    1ION     CL71810  26.817  29.319   7.419  0.1193 -0.0585  0.1800
    1ION     CL71811   2.348  19.157   7.651  0.3875 -0.3831  0.1436
    1ION     CL71812  15.754   9.657   1.901  0.2436  0.0552 -0.3580
    1ION     CL71813  12.474  23.851   6.847 -0.2240  0.0569 -0.0757
    1ION     CL71814  25.849   1.675   6.967  0.0919 -0.1541 -0.0385
    1ION     CL71815  24.310  29.461   7.163  0.0960 -0.1851 -0.2105
    1ION     CL71816   8.615  19.418   8.110  0.1289  0.1562  0.0104
    1ION     CL71817  20.481  29.831   1.454  0.1669  0.0243  0.2541
    1ION     CL71818  13.757  16.766   1.449  0.3403 -0.0782 -0.1271
    1ION     CL71819   3.062   0.326   0.012  0.0538  0.2516 -0.2526
    1ION     CL71820  15.716  16.595   6.690  0.0021 -0.1822 -0.0524
    1ION     CL71821  18.193   9.241   2.446 -0.1421  0.2817 -0.2878
    1ION     CL71822  26.094   2.356   7.119  0.0631  0.1408  0.4334
    1ION     CL71823  11.327  20.187   1.913 -0.3132  0.1168 -0.1781
    1ION     CL71824   3.867  16.887   8.688 -0.2786 -0.0609 -0.1392
    1ION     CL71825   3.396   8.769   1.101  0.1227  0.1102 -0.2084
    1ION     CL71826  10.987  24.535   1.283  0.1469  0.1738 -0.0147
    1ION     CL71827  11.306   9.254   0.873  0.3581  0.0007 -0.1513
    1ION     CL71828  16.282  18.360   2.453  0.3615  0.1154 -0.2425
    1ION     CL71829  12.552  18.783   7.552  0.3799 -0.0009  0.0838
    1ION     CL71830  21.614  29.825   8.764  0.1180  0.0055  0.2566
    1ION     CL71831  19.963   5.682   1.056 -0.0994 -0.0371  0.1086
    1ION     CL71832   0.099  16.287   0.609  0.2201  0.1165 -0.0136
    1ION     CL71833  12.988  19.687   0.870 -0.0819 -0.0813 -0.0146
    1ION     CL71834   3.427  28.070   7.762  0.0433  0.1853  0.0237
    1ION     CL71835   9.547  12.635   0.217 -0.0535  0.0490 -0.1335
    1ION     CL71836   6.525  20.241   1.695 -0.2671 -0.1266 -0.2965
    1ION     CL71837  23.620  12.786   7.650 -0.0930 -0.0764  0.0307
    1ION     CL71838  19.806  16.642   7.277 -0.2226  0.2651  0.4161
    1ION     CL71839   0.846  17.647   7.596  0.0257 -0.1055 -0.0147
    1ION     CL71840   2.860   5.284   8.909  0.1993 -0.0898  0.2677
    1ION     CL71841   5.151  15.961   7.376  0.1571 -0.0144 -0.3723
    1ION     CL71842   1.541  27.241   9.339 -0.0922  0.0710  0.1010
    1ION     CL71843   8.938   0.158   7.719  0.1501  0.3326 -0.1511
    1ION     CL71844  20.753  11.002   8.782  0.1140  0.1039  0.1607
    1ION     CL71845  17.084   9.270   1.183  0.1201  0.2378  0.1139
    1ION     CL71846  24.306   0.812   0.076 -0.0124  0.0792  0.2058
    1ION     CL71847  21.261  19.734   0.064  0.0563 -0.0187  0.0774
    1ION     CL71848   3.541  15.251   7.177  0.3970 -0.0082  0.1167
    1ION     CL71849   4.504  25.022   6.026 -0.0467 -0.2373  0.2559
    1ION     CL71850  20.957  25.951   0.331  0.0992 -0.4287  0.1978
    1ION     CL71851   0.322  10.895   7.647  0.1500 -0.3025 -0.0595
    1ION     CL71852  22.944  23.077   2.064 -0.0572 -0.4284 -0.0740
    1ION     CL71853  13.437  20.912   0.871  0.0280 -0.1471 -0.2310
    1ION     CL71854  18.862  13.114   8.183 -0.3885 -0.0750 -0.1506
    1ION     CL71855  28.957  18.493   6.573 -0.3428 -0.0009 -0.0390
    1ION     CL71856   4.558  20.208   6.335  0.1661 -0.0914 -0.0561
    1ION     CL71857  28.314   2.686   8.741  0.1079 -0.1991  0.3437
    1ION     CL71858  17.743  28.185   0.479 -0.3804 -0.2093 -0.0822
    1ION     CL71859  21.506   7.876   0.641 -0.0364  0.1747  0.1097
    1ION     CL71860  14.870  27.833   2.215 -0.1595  0.3395  0.0877
    1ION     CL71861   1.966  21.842   6.461  0.3660 -0.1217 -0.0440
    1ION     CL71862  27.240   4.460   0.684  0.4071 -0.0087  0.1075
    1ION     CL71863  19.597  19.373   1.750 -0.1470  0.3664  0.0349
    1ION     CL71864   5.628  15.309   7.896 -0.0200 -0.0744 -0.0839
    1ION     CL71865   6.489  21.456   7.593 -0.2529  0.1088  0.2589
    1ION     CL71866   0.959  19.328   6.251  0.3289  0.3573 -0.1371
    1ION     CL71867   7.597  27.027   9.291  0.1667 -0.3496 -0.1047
    1ION     CL71868   4.539   1.901   8.783 -0.3069 -0.1103  0.0269
    1ION     CL71869   8.858  25.229   8.167 -0.0243  0.0374  0.2481
    1ION     CL71870  12.815  13.355   1.949 -0.1473  0.0436 -0.2267
    1ION     CL71871   1.048  23.448   8.141 -0.4604 -0.2743  0.2173
    1ION     CL71872  22.220  21.254   1.016  0.0552 -0.0510 -0.1226
    1ION     CL71873   4.545   1.723   1.598 -0.3772  0.0361 -0.0984
    1ION     CL71874  27.685  22.326   1.823 -0.0096  0.1708  0.2456
    1ION     CL71875  19.685   3.997   2.237  0.3228  0.0761  0.0547
    1ION     CL71876  19.849  21.780   1.715  0.0261 -0.0994  0.0368
    1ION     CL71877  16.051  17.742   7.183  0.1926 -0.1060 -0.0045
    1ION     CL71878   7.764   2.744   0.469  0.1966  0.1463 -0.1705
    1ION     CL71879  29.056  17.376   9.040  0.2907 -0.0127 -0.1005
    1ION     CL71880  19.140   7.219   0.281  0.2265 -0.1890  0.2083
    1ION     CL71881  12.851  29.454   1.325  0.1029  0.0673  0.1329
    1ION     CL71882   8.658   4.959   7.863  0.1604  0.2031 -0.3204
    1ION     CL71883  23.778  13.148   1.098  0.1689 -0.1365  0.3376
    1ION     CL71884  14.752  28.330   6.959  0.0982  0.0066  0.1686
    1ION     CL71885  17.789  14.372   7.723 -0.0101 -0.1047  0.0613
    1ION     CL71886  23.813  13.290   0.171 -0.2415 -0.1962 -0.0411
    1ION     CL71887  26.748  10.559   9.011  0.0436  0.3374 -0.0448
    1ION     CL71888  22.771  19.905   0.644 -0.0737 -0.1382 -0.3073
    1ION     CL71889   6.156  20.887   7.165 -0.0007  0.0250  0.1078
    1ION     CL71890   8.825   1.288   0.872  0.0666  0.1483  0.0297
    1ION     CL71891  22.226   6.471   8.792  0.1020  0.2033 -0.0447
    1ION     CL71892   7.253  17.475   7.898 -0.3545 -0.1321 -0.0971
    1ION     CL71893   2.576   3.058   8.513 -0.1355 -0.2911  0.0521
    1ION     CL71894  25.099  24.462   1.164 -0.0858 -0.0058 -0.0644
    1ION     CL71895  26.819  26.220   1.379 -0.3103  0.1160 -0.0342
    1ION     CL71896  28.595  24.221   0.885 -0.4336  0.0791  0.3008
    1ION     CL71897   3.775  18.194   9.331  0.0079  0.1405 -0.1720
    1ION     CL71898  13.291  16.034   7.812  0.2396  0.0646  0.3947
    1ION     CL71899   0.924  18.032   0.656  0.1011 -0.2087 -0.0984
    1ION     CL71900   2.060   3.908   6.763 -0.1467  0.1363  0.1386
    1ION     CL71901  15.494  24.003   7.765  0.2225 -0.0716 -0.0869
    1ION     CL71902  22.613  16.104   6.967  0.3762  0.0784  0.0223
    1ION     CL71903  13.579  11.177   9.157  0.0078  0.0456  0.0686
    1ION     CL71904  20.383   4.152   7.513 -0.0167 -0.2748  0.1298
    1ION     CL71905  27.395  20.641   9.051  0.2862 -0.2909 -0.0726
    1ION     CL71906  21.464  13.269   1.783  0.3101  0.2637 -0.0199
    1ION     CL71907  28.048  11.016   8.666 -0.2415 -0.2644  0.2375
    1ION     CL71908  16.244  24.758   8.013  0.2588  0.0703  0.1023
    1ION     CL71909  15.084  14.510   7.679 -0.1407  0.1237  0.1473
    1ION     CL71910  18.613  17.828   0.890  0.0485  0.0390 -0.3562
    1ION     CL71911  27.123   6.042   8.068  0.0842  0.2202  0.0047
    1ION     CL71912   8.142   4.262   1.666 -0.0889  0.0430 -0.2782
    1ION     CL71913   9.717  23.933   6.355  0.0603  0.2939 -0.0761
    1ION     CL71914  25.820   4.854   0.453 -0.2358 -0.2441 -0.3378
    1ION     CL71915  10.516  26.005   7.673  0.2479 -0.4765 -0.2002
    1ION     CL71916   8.679   1.857   2.297 -0.1304 -0.2215  0.0229
    1ION     CL71917   0.872  25.936   8.123  0.0016 -0.2697  0.3846
    1ION     CL71918   3.584   4.474   2.433  0.1781  0.0175 -0.1153
    1ION     CL71919   5.670  27.969   1.905  0.3711  0.1837 -0.2665
    1ION     CL71920  19.076   8.320   1.867 -0.0867 -0.0803 -0.0686
    1ION     CL71921  26.291  24.582   6.649 -0.2085 -0.0434  0.0487
    1ION     CL71922  21.390  18.810   7.836  0.0819  0.1745 -0.2793
    1ION     CL71923  16.063  20.531   7.686 -0.0360 -0.3289 -0.2450
    1ION     CL71924   4.586  20.692   1.419  0.0535  0.0534  0.1770
    1ION     CL71925  21.457  21.814   0.994  0.0767  0.3267  0.3706
    1ION     CL71926  30.093  10.086   6.000 -0.0407 -0.0657  0.1999
    1ION     CL71927  30.000  17.486   0.395 -0.0937 -0.0001 -0.1520
    1ION     CL71928   1.560   4.070   7.151  0.1435  0.2285 -0.2782
    1ION     CL71929   4.795  26.695   2.289 -0.2601 -0.2264 -0.2562
    1ION     CL71930  27.212  13.161   8.511  0.0569  0.1459  0.1997
    1ION     CL71931  17.715   8.553   7.909 -0.0096  0.3363 -0.0472
    1ION     CL71932  21.717  16.987   7.573  0.1184  0.1548  0.0811
    1ION     CL71933  13.646  11.348   2.282  0.2373  0.0017 -0.1706
    1ION     CL71934  20.789  28.547   7.286 -0.0192  0.2890 -0.1121
    1ION     CL71935  27.464  29.370   0.186  0.1689 -0.2591 -0.1404
    1ION     CL71936   5.970   8.094   7.959 -0.1890  0.1189 -0.0408
    1ION     CL71937  14.838  24.875   8.506 -0.0126  0.0589  0.0298
    1ION     CL71938  21.005  19.776   6.893  0.3060  0.0416 -0.0913
    1ION     CL71939  15.355   4.321   8.067  0.1835  0.1875 -0.0469
    1ION     CL71940   7.338   6.401   0.520 -0.0573  0.0652 -0.1490
    1ION     CL71941  13.734   7.127   8.086 -0.1685 -0.0668  0.0414
    1ION     CL71942   1.258   9.361   7.297  0.0244  0.2253 -0.3229
    1ION     CL71943  17.530   2.712   1.331 -0.2776  0.0227  0.1114
    1ION     CL71944   2.686  22.859   6.210  0.3174 -0.2020 -0.1820
    1ION     CL71945   2.412  16.390   6.787 -0.1294  0.1305 -0.1450
    1ION     CL71946  21.153  24.232   0.445 -0.0258  0.2178 -0.0213
    1ION     CL71947  13.545   6.160   3.093 -0.0579  0.1284  0.0276
    1ION     CL71948   6.986  19.035   8.901  0.1001 -0.1702  0.0243
    1ION     CL71949   6.813   5.085   7.507  0.3206 -0.1133  0.3913
    1ION     CL71950  11.260   3.371   0.951  0.0622  0.5211  0.0463
    1ION     CL71951   6.524  17.128   1.465 -0.0631 -0.1858  0.2865
    1ION     CL71952   4.330   7.919   8.041  0.0699 -0.0836  0.3620
    1ION     CL71953  28.455   7.712   9.002 -0.1985  0.1112  0.2154
    1ION     CL71954  16.864  20.402   8.797 -0.1341  0.0536  0.0940
    1ION     CL71955  14.791   9.665   1.152  0.0224 -0.1505  0.2328
    1ION     CL71956  19.271   0.350   7.102  0.0261  0.0423 -0.2366
    1ION     CL71957  17.332   3.384   8.501  0.2426  0.0655  0.2510
    1ION     CL71958  14.083  20.863   7.677  0.0392  0.1860  0.0742
    1ION     CL71959   4.570  10.741   9.313 -0.1115  0.1323  0.1070
    1ION     CL71960  20.935   2.762   0.900  0.1461  0.1889  0.1801
    1ION     CL71961  29.872  18.893   0.971  0.3439  0.0151 -0.0039
    1ION     CL71962   2.300  28.404   2.490  0.2906  0.2352 -0.0239
    1ION     CL71963  29.023  29.708   7.830 -0.3561  0.0874  0.0074
    1ION     CL71964  18.054   5.205   2.893 -0.0397  0.2531 -0.1966
    1ION     CL71965  15.014   8.018   9.088  0.2052 -0.1183 -0.1052
    1ION     CL71966  12.424  21.226   9.150 -0.1977  0.1588  0.0626
    1ION     CL71967   6.497  28.673   0.857 -0.1351  0.2142 -0.0301
    1ION     CL71968   1.002  21.659   6.061  0.1218 -0.2304  0.0975
    1ION     CL71969  26.915  12.974   0.437  0.2130  0.1990  0.2395
    1ION     CL71970  10.482   0.578   1.076 -0.0537  0.2713 -0.1007
    1ION     CL71971  26.111   2.039   1.662  0.0419  0.2766 -0.2466
    1ION     CL71972  29.643   7.587   0.065 -0.1732  0.0173 -0.4097
    1ION     CL71973  24.124  18.313   8.752  0.1071  0.0554  0.1023
    1ION     CL71974  16.802  10.135   0.698  0.1841  0.0903  0.0165
    1ION     CL71975   1.998  29.245   8.863  0.0221 -0.1828 -0.2900
    1ION     CL71976  24.770   7.331   7.749 -0.0038 -0.2964 -0.0334
    1ION     CL71977  19.021   9.617   2.022 -0.3903 -0.1080 -0.2401
    1ION     CL71978  23.423  16.214   1.265 -0.1912 -0.2085  0.2185
    1ION     CL71979  10.361  29.137   2.728 -0.0708 -0.1069  0.1155
    1ION     CL71980  16.493  19.461   1.528  0.0061 -0.0988 -0.1633
    1ION     CL71981  17.090  20.171   7.659 -0.1110 -0.2011 -0.0269
    1ION     CL71982  14.936   8.460   1.591  0.0653 -0.1799  0.0328
    1ION     CL71983   2.294  28.065   0.297 -0.0408  0.0165  0.0254
    1ION     CL71984  19.364   5.726   8.707 -0.0405 -0.2756 -0.1648
    1ION     CL71985  10.620   3.643   2.843  0.2884  0.1319 -0.0563
    1ION     CL71986  17.051  29.056   7.208  0.2167  0.0454  0.1153
    1ION     CL71987  19.420  26.175   7.490 -0.0524  0.0950  0.1783
    1ION     CL71988  15.864   7.252   2.551  0.2891 -0.1334 -0.1895
    1ION     CL71989   7.644  27.866   3.071  0.2938 -0.3775 -0.5349
    1ION     CL71990  14.231  21.709   1.672  0.2642  0.1662 -0.0630
    1ION     CL71991  10.303  28.649   7.756  0.4059  0.0095  0.2196
    1ION     CL71992  11.374  12.686   0.922 -0.0878  0.0738  0.1086
    1ION     CL71993  27.256   0.563   2.710 -0.0157  0.1465 -0.1813
    1ION     CL71994  27.869   7.449   2.026  0.1815 -0.3099  0.2387
    1ION     CL71995   0.379  14.772   5.709 -0.1664 -0.1718  0.4921
    1ION     CL71996  15.771   4.975   9.017  0.0867  0.2348  0.0161
    1ION     CL71997  13.967  10.005   2.508  0.0725 -0.3321  0.0826
    1ION     CL71998   6.045  17.420   8.713  0.0074  0.1132  0.0230
    1ION     CL71999  23.051   3.188   7.771 -0.2581 -0.2940 -0.0862
    1ION     CL72000  13.708   5.217   8.428  0.1324  0.1063  0.0756
    1ION     CL72001   1.828  24.046   1.321 -0.0773 -0.2277 -0.0994
    1ION     CL72002  22.888  24.488   2.276 -0.0217  0.2494 -0.1510
    1ION     CL72003  10.968  22.681   2.549  0.1536  0.0296 -0.3637
    1ION     CL72004  30.093  23.956   1.789 -0.3869 -0.2990  0.1631
    1ION     CL72005  27.677   7.369   0.455 -0.1056 -0.0111  0.4022
    1ION     CL72006   5.393   5.974   7.146  0.0196  0.1097  0.2047
    1ION     CL72007  10.623  10.398   2.676 -0.1567 -0.3387 -0.0818
    1ION     CL72008  29.909  12.279   8.411  0.1736  0.0211 -0.3235
    1ION     CL72009   4.497  27.490   0.183  0.3298  0.1706 -0.3977
    1ION     CL72010   9.465  16.433   8.079 -0.1840  0.1628  0.1157
    1ION     CL72011   1.005  28.281   7.703  0.2228  0.2344 -0.2032
    1ION     CL72012  15.745   5.693   9.230 -0.0155  0.0801  0.1732
    1ION     CL72013  27.756  19.096   7.902 -0.1296 -0.0205 -0.1676
    1ION     CL72014  20.601   6.691   8.716  0.3678  0.0291 -0.0159
    1ION     CL72015   2.325  17.986   7.984  0.0722  0.0307  0.0235
    1ION     CL72016  13.778  14.473   8.296 -0.0442 -0.3615 -0.1823
    1ION     CL72017  29.763  13.559   1.407  0.0305 -0.2999  0.2379
    1ION     CL72018  19.568  17.653   7.648 -0.0602  0.0844 -0.0978
    1ION     CL72019  21.874   4.600   2.578 -0.0725  0.4082 -0.2530
    1ION     CL72020  15.492   7.379   0.464 -0.0552  0.0651  0.0231
    1ION     CL72021  13.445  12.740   0.493  0.0471  0.0598 -0.0440
    1ION     CL72022  18.070  10.733   1.792  0.0418 -0.0465  0.1300
    1ION     CL72023   6.211  24.861   7.444  0.0251 -0.0357 -0.0474
    1ION     CL72024   9.552   1.394   2.342  0.2423  0.0558 -0.0205
    1ION     CL72025  16.352  20.490   0.519 -0.0598  0.2268  0.1077
    1ION     CL72026  23.412  12.125   1.717 -0.2598 -0.2490  0.0164
    1ION     CL72027  18.243   7.952   8.469 -0.1036 -0.1174  0.1096
    1ION     CL72028   7.498  12.912   2.497  0.0085  0.0710  0.2379
    1ION     CL72029   3.908   1.746   2.605 -0.3603  0.2364 -0.1106
    1OPC    NC372030   5.638  15.311   6.682 -0.0106 -0.5280  0.0773
    1OPC    PO472031   5.308  15.219   6.910 -0.1076  0.0782  0.1428
    1OPC    GL172032   5.278  14.795   6.628 -0.4594 -0.0006 -0.0713
    1OPC    GL272033   5.034  14.599   6.264  0.0978  0.2559 -0.2115
    1OPC    C1B72034   5.008  14.633   5.829 -0.0172 -0.3430  0.0972
    1OPC    D2B72035   5.106  14.572   5.398 -0.1105  0.3075  0.3677
    1OPC    C3B72036   4.823  14.649   4.902 -0.0270  0.0120 -0.0308
    1OPC    C4B72037   4.612  14.638   4.543  0.1780 -0.0938 -0.1257
    1OPC    NC372038   6.119  13.913   7.154 -0.0981  0.3115 -0.2981
    1OPC    PO472039   5.702  13.756   7.084 -0.2109  0.3160  0.0808
    1OPC    GL172040   5.859  13.575   6.697 -0.2020  0.0748 -0.0966
    1OPC    GL272041   5.827  13.656   6.341  0.3393 -0.0263 -0.1887
    1OPC    C1B72042   5.968  13.658   5.990  0.0756 -0.4437 -0.4037
    1OPC    D2B72043   5.646  13.443   5.625  0.1064 -0.1348 -0.0292
    1OPC    C3B72044   5.617  13.456   5.221  0.0819  0.0452 -0.0012
    1OPC    C4B72045   5.867  13.552   4.821  0.1083  0.0239 -0.0520
    1OPC    NC372046  14.372   1.391   7.572 -0.1389 -0.1271 -0.1617
    1OPC    PO472047  14.517   0.932   7.451 -0.1625 -0.2819 -0.0526
    1OPC    GL172048  14.533   1.155   7.131 -0.2690 -0.2099  0.2879
    1OPC    GL272049  14.564   1.164   6.902 -0.0244  0.2541 -0.1298
    1OPC    C1B72050  14.543   1.279   6.342  0.0297  0.1481 -0.0244
    1OPC    D2B72051  14.419   1.513   6.025 -0.0977  0.0516 -0.1928
    1OPC    C3B72052  14.203   1.283   5.719  0.2523  0.0263  0.1846
    1OPC    C4B72053  14.151   1.213   5.351 -0.3297 -0.0851  0.1753
    1OPC    NC372054  10.562  21.982   6.645  0.0778  0.0106 -0.3152
    1OPC    PO472055  10.949  22.102   6.773 -0.0558 -0.2464  0.0659
    1OPC    GL172056  11.093  22.106   6.371  0.2433 -0.1217  0.0395
    1OPC    GL272057  11.208  22.111   6.049  0.1442  0.2955  0.0078
    1OPC    C1B72058  11.163  22.052   5.582 -0.1331  0.4307  0.1525
    1OPC    D2B72059  11.076  22.131   5.121 -0.1463 -0.3408 -0.0165
    1OPC    C3B72060  10.987  21.839   4.723 -0.0272 -0.0797  0.0466
    1OPC    C4B72061  10.596  21.899   4.448  0.1086  0.1608 -0.4498
    1OPC    NC372062  28.755   7.587   6.176 -0.0445 -0.2934 -0.0700
    1OPC    PO472063  28.381   7.603   5.969 -0.0700  0.3865 -0.0405
    1OPC    GL172064  28.419   7.116   6.009 -0.4922  0.4276  0.0951
    1OPC    GL272065  28.679   6.997   5.779  0.2089  0.0400  0.4209
    1OPC    C1B72066  28.875   7.047   5.313  0.0708  0.3952 -0.2422
    1OPC    D2B72067  28.811   6.962   4.942 -0.2439 -0.0611 -0.0379
    1OPC    C3B72068  28.770   7.271   4.573  0.1323  0.0040  0.2923
    1OPC    C4B72069  28.330   7.391   4.443 -0.1995  0.2059  0.2473
    1OPC    NC372070  11.224   1.869   7.418 -0.1851 -0.0278  0.1981
    1OPC    PO472071  11.161   2.329   7.651  0.2459  0.0024 -0.1231
    1OPC    GL172072  10.947   2.219   7.273 -0.0795 -0.3673 -0.2202
    1OPC    GL272073  10.789   2.201   6.944 -0.3355 -0.0582 -0.1084
    1OPC    C1B72074  10.713   2.166   6.571  0.0005 -0.0336  0.4538
    1OPC    D2B72075  10.616   2.068   6.197 -0.2754  0.1635  0.0024
    1OPC    C3B72076  10.872   2.273   5.919  0.2166 -0.2899  0.3174
    1OPC    C4B72077  11.107   2.229   5.529 -0.1852  0.5949  0.2128
    1OPC    NC372078  27.116  18.797   5.763  0.0074 -0.0330 -0.2564
    1OPC    PO472079  27.039  18.465   5.608 -0.1203 -0.0951 -0.0870
    1OPC    GL172080  27.199  18.595   5.208  0.2566  0.1986 -0.0442
    1OPC    GL272081  27.321  18.485   4.927  0.0561  0.1356 -0.1004
    1OPC    C1B72082  27.282  18.590   4.441  0.2657 -0.3568 -0.0057
    1OPC    D2B72083  27.339  18.840   4.137 -0.1345 -0.1206  0.0534
    1OPC    C3B72084  26.931  19.152   3.974 -0.0272 -0.1227 -0.0368
    1OPC    C4B72085  26.575  19.076   3.666  0.1158 -0.0153  0.1791
    1OPC    NC372086  21.420  20.772   6.954  0.0531  0.0052 -0.0733
    1OPC    PO472087  21.193  20.999   6.492 -0.1969 -0.0514 -0.2557
    1OPC    GL172088  20.896  21.075   6.127  0.2080 -0.1211 -0.1339
    1OPC    GL272089  20.741  20.922   5.889 -0.3311  0.1160 -0.1508
    1OPC    C1B72090  20.634  21.013   5.441  0.0166 -0.0350  0.1693
    1OPC    D2B72091  20.446  20.901   5.078  0.0929 -0.3507 -0.1007
    1OPC    C3B72092  20.760  20.731   4.769  0.0301  0.1381 -0.1306
    1OPC    C4B72093  20.991  20.465   4.573  0.1248  0.1031  0.0015
    1OPC    NC372094  12.060  27.289   6.930  0.2589 -0.1321 -0.2417
    1OPC    PO472095  11.677  27.445   6.714  0.0604  0.1441 -0.1073
    1OPC    GL172096  11.858  27.808   6.505 -0.2332  0.2732  0.0622
    1OPC    GL272097  11.792  28.082   6.430  0.3475  0.0662  0.2449
    1OPC    C1B72098  11.711  28.464   6.160 -0.1578 -0.0436  0.0005
    1OPC    D2B72099  11.825  28.674   5.784  0.1519 -0.3556 -0.1391
    1OPC    C3B72100  12.166  28.946   5.672  0.0948  0.1112 -0.5917
    1OPC    C4B72101  12.400  28.916   5.331 -0.0954  0.1650  0.3303
    1OPC    NC372102  19.029  18.819   6.846 -0.2183 -0.3087  0.1368
    1OPC    PO472103  19.264  19.106   6.696 -0.0585 -0.1250 -0.1370
    1OPC    GL172104  19.401  19.064   6.248 -0.1111 -0.0926  0.0292
    1OPC    GL272105  19.475  19.178   6.007  0.0895 -0.1266 -0.1872
    1OPC    C1B72106  19.329  19.373   5.632  0.1619 -0.1595 -0.0653
    1OPC    D2B72107  19.461  19.282   5.203  0.0641  0.0851 -0.4823
    1OPC    C3B72108  19.067  19.261   4.869 -0.0684  0.1458  0.2425
    1OPC    C4B72109  18.783  19.362   4.542  0.3687  0.0498  0.0826
    1OPC    NC372110  29.837  24.490   5.921  0.2486  0.3667 -0.0420
    1OPC    PO472111  29.569  24.874   6.021 -0.0862 -0.0265  0.1003
    1OPC    GL172112  29.956  24.981   5.813  0.2461  0.0191 -0.2320
    1OPC    GL272113  29.945  25.239   5.500 -0.1139  0.0560 -0.1322
    1OPC    C1B72114  30.143  25.194   5.064  0.1302 -0.1825 -0.1409
    1OPC    D2B72115  30.363  25.303   4.774 -0.1405  0.2325  0.1816
    1OPC    C3B72116  30.702  25.526   4.781  0.2686  0.1993  0.1765
    1OPC    C4B72117  30.886  25.803   4.477 -0.0642 -0.4573  0.0074
    1OPC    NC372118   5.034  10.254   7.323 -0.2157  0.0964  0.3005
    1OPC    PO472119   5.075  10.047   6.892  0.1737 -0.0973 -0.1364
    1OPC    GL172120   5.376   9.815   6.747  0.1151 -0.1299  0.0834
    1OPC    GL272121   5.471   9.668   6.439  0.2289  0.1277 -0.1117
    1OPC    C1B72122   5.592   9.721   6.076  0.0434  0.2354 -0.2294
    1OPC    D2B72123   5.594   9.801   5.722 -0.0266  0.1106 -0.0284
    1OPC    C3B72124   5.821   9.547   5.490  0.1410  0.0016 -0.0034
    1OPC    C4B72125   6.312   9.379   5.478 -0.2613  0.2169  0.1225
    1OPC    NC372126  15.180   5.291   7.949 -0.0259 -0.0213  0.0163
    1OPC    PO472127  14.788   5.242   7.717  0.0871  0.1508  0.0413
    1OPC    GL172128  14.536   5.423   7.389 -0.1259 -0.1584  0.1044
    1OPC    GL272129  14.426   5.454   7.049 -0.2158  0.3458  0.0267
    1OPC    C1B72130  14.395   5.687   6.706 -0.0984 -0.0063  0.1725
    1OPC    D2B72131  14.475   5.759   6.239  0.0106  0.1365 -0.3350
    1OPC    C3B72132  14.765   5.523   6.074 -0.2050  0.0527  0.2021
    1OPC    C4B72133  15.106   5.183   6.125 -0.1342 -0.0339  0.3898
    1OPC    NC372134   1.216   2.466   6.597 -0.0696 -0.1925 -0.1979
    1OPC    PO472135   0.839   2.199   6.671  0.0988  0.2887 -0.3273
    1OPC    GL172136   0.871   2.180   6.209  0.0040 -0.0048 -0.0389
    1OPC    GL272137   0.600   2.101   5.996 -0.0439 -0.0461  0.3562
    1OPC    C1B72138   0.536   1.898   5.635 -0.2274 -0.1076  0.1380
    1OPC    D2B72139   0.491   1.638   5.492 -0.3544  0.3315 -0.1783
    1OPC    C3B72140   0.123   1.528   5.250  0.0396 -0.3453  0.1550
    1OPC    C4B72141   0.103   1.679   4.914  0.0011 -0.0186 -0.0905
    1OPC    NC372142  16.198  20.992   7.474 -0.0301  0.3237 -0.1697
    1OPC    PO472143  15.979  20.994   7.080  0.1174 -0.0270  0.0284
    1OPC    GL172144  16.095  21.319   6.770  0.1922 -0.1513  0.1434
    1OPC    GL272145  16.222  21.462   6.481  0.5395 -0.1321 -0.0949
    1OPC    C1B72146  16.379  21.360   6.124 -0.2313  0.2354  0.3272
    1OPC    D2B72147  16.344  21.319   5.773  0.0857  0.1528 -0.0297
    1OPC    C3B72148  16.048  21.468   5.626  0.0281 -0.2397  0.1951
    1OPC    C4B72149  16.041  21.529   5.271 -0.3811  0.0258 -0.0613
    1OPC    NC372150   7.984  28.409   6.926 -0.1708 -0.2420 -0.0531
    1OPC    PO472151   8.261  28.188   7.126 -0.0788 -0.0735 -0.2867
    1OPC    GL172152   8.425  28.329   6.630 -0.1023 -0.2321  0.1786
    1OPC    GL272153   8.425  28.447   6.334 -0.1061  0.0089  0.0417
    1OPC    C1B72154   8.674  28.661   5.948 -0.3313  0.0349 -0.0519
    1OPC    D2B72155   9.100  28.752   5.592  0.2152  0.0752  0.0081
    1OPC    C3B72156   9.008  28.784   5.234 -0.0852  0.0430  0.1696
    1OPC    C4B72157   8.728  28.772   5.016 -0.0758 -0.2278 -0.2486
    1OPC    NC372158  24.819  18.283   5.929  0.0966 -0.3367  0.0669
    1OPC    PO472159  24.605  17.907   6.061 -0.1229  0.1167 -0.0510
    1OPC    GL172160  24.321  18.126   5.785 -0.0974 -0.3730  0.0624
    1OPC    GL272161  24.340  18.369   5.500  0.2602 -0.3934  0.0266
    1OPC    C1B72162  24.227  18.770   5.196 -0.2000  0.0523 -0.2372
    1OPC    D2B72163  24.289  19.022   4.740  0.2045  0.0354 -0.0797
    1OPC    C3B72164  24.419  18.946   4.316  0.1019 -0.1503  0.0659
    1OPC    C4B72165  24.631  18.558   4.275  0.0625  0.1091  0.1449
    1OPC    NC372166  24.674  21.104   6.280 -0.0824  0.1839 -0.1268
    1OPC    PO472167  24.191  20.986   6.297  0.1333 -0.1042  0.0590
    1OPC    GL172168  24.089  21.157   5.950 -0.2039  0.0021  0.1263
    1OPC    GL272169  24.002  21.206   5.685 -0.3049  0.1275  0.0006
    1OPC    C1B72170  23.876  21.238   5.215 -0.0109  0.1019  0.0002
    1OPC    D2B72171  23.850  21.423   4.844  0.1948 -0.0804  0.2484
    1OPC    C3B72172  23.893  21.107   4.468  0.0777  0.3023 -0.3102
    1OPC    C4B72173  23.929  20.711   4.232  0.0308 -0.0443  0.2161
    1OPC    NC372174  20.481   1.308   6.550 -0.2599  0.1582 -0.2944
    1OPC    PO472175  20.829   1.063   6.714 -0.0685  0.1461  0.1476
    1OPC    GL172176  20.656   0.885   6.450  0.0974  0.0066  0.0455
    1OPC    GL272177  20.545   0.935   6.129  0.1075 -0.2505  0.1007
    1OPC    C1B72178  20.408   0.728   5.750 -0.0150 -0.1763  0.2755
    1OPC    D2B72179  20.316   0.592   5.368  0.1087  0.1175  0.1343
    1OPC    C3B72180  19.937   0.583   5.195  0.2114 -0.4548 -0.1483
    1OPC    C4B72181  19.491   0.603   4.975 -0.2774  0.0620 -0.2264
    1OPC    NC372182   8.876  17.398   7.009 -0.0595  0.0650 -0.2817
    1OPC    PO472183   9.072  17.450   6.646  0.1089 -0.1529  0.0776
    1OPC    GL172184   9.145  17.545   6.233  0.1053  0.0457 -0.2822
    1OPC    GL272185   9.319  17.462   6.006 -0.1042 -0.1565 -0.0367
    1OPC    C1B72186   9.344  17.362   5.626  0.1592 -0.1350  0.0509
    1OPC    D2B72187   9.302  17.207   5.219 -0.1243 -0.3042 -0.0139
    1OPC    C3B72188   9.176  17.445   4.972 -0.0937 -0.0688 -0.0759
    1OPC    C4B72189   8.894  17.466   4.596 -0.2580 -0.0953 -0.1925
    1OPC    NC372190  24.040  10.216   6.419  0.0796 -0.0800  0.3746
    1OPC    PO472191  23.831  10.423   6.185 -0.3271 -0.1608  0.2004
    1OPC    GL172192  24.077  10.573   5.844  0.2958 -0.1289  0.0704
    1OPC    GL272193  23.944  10.590   5.539  0.0249 -0.3205  0.1836
    1OPC    C1B72194  23.815  10.528   5.134 -0.1139 -0.1326  0.2712
    1OPC    D2B72195  23.683  10.629   4.734  0.1269 -0.0682  0.2696
    1OPC    C3B72196  23.941  10.596   4.329 -0.3950  0.0643 -0.1470
    1OPC    C4B72197  24.290  10.873   4.184 -0.0997  0.1209 -0.0154
    1OPC    NC372198  23.952  15.214   5.551 -0.1444  0.1486  0.3656
    1OPC    PO472199  24.336  15.519   5.520  0.1347  0.0357  0.1797
    1OPC    GL172200  24.268  15.515   5.092  0.0036 -0.0387 -0.2013
    1OPC    GL272201  24.322  15.691   4.936 -0.2030 -0.0190  0.2064
    1OPC    C1B72202  24.326  15.846   4.543  0.0940  0.0432  0.1433
    1OPC    D2B72203  24.450  16.108   4.331  0.0066  0.0980 -0.2757
    1OPC    C3B72204  24.204  16.438   4.219  0.0123 -0.0725  0.1156
    1OPC    C4B72205  24.257  16.594   3.729 -0.0248 -0.4523  0.1604
    1OPC    NC372206   0.583   1.636   6.909 -0.0521  0.1264  0.0265
    1OPC    PO472207   0.498   1.153   6.841  0.0822  0.1354  0.0982
    1OPC    GL172208   0.182   1.427   6.516  0.0714 -0.1298  0.0429
    1OPC    GL272209   0.094   1.674   6.310 -0.3056 -0.0808  0.5171
    1OPC    C1B72210   0.102   1.915   5.930  0.2439  0.1495 -0.1329
    1OPC    D2B72211  -0.060   1.895   5.539 -0.0647  0.2844 -0.0156
    1OPC    C3B72212   0.264   2.014   5.237  0.0207 -0.1004  0.0750
    1OPC    C4B72213   0.332   2.123   4.786  0.2277 -0.0231  0.1526
    1OPC    NC372214   0.523   9.189   6.324  0.2518  0.0554 -0.0469
    1OPC    PO472215   0.833   8.892   6.105  0.0509 -0.1192 -0.1545
    1OPC    GL172216   1.024   9.042   5.713 -0.0555 -0.0986 -0.0094
    1OPC    GL272217   1.180   8.969   5.556  0.0190  0.2187  0.0719
    1OPC    C1B72218   1.351   8.765   5.176 -0.0854 -0.0949 -0.0233
    1OPC    D2B72219   1.416   8.473   4.842  0.0367 -0.1944 -0.3093
    1OPC    C3B72220   0.917   8.271   4.881 -0.1385 -0.1636  0.2164
    1OPC    C4B72221   0.643   7.968   4.860  0.1942  0.0690 -0.0444
    1OPC    NC372222  25.653  26.222   7.521  0.1118  0.0512 -0.0468
    1OPC    PO472223  25.518  26.483   7.158 -0.0780  0.1009  0.0449
    1OPC    GL172224  25.752  26.502   6.700  0.2475 -0.3269 -0.0364
    1OPC    GL272225  25.713  26.252   6.474 -0.0929  0.1420 -0.0577
    1OPC    C1B72226  25.577  26.099   5.993  0.1452 -0.1142  0.4167
    1OPC    D2B72227  25.418  26.026   5.594 -0.0499  0.0320 -0.2238
    1OPC    C3B72228  25.048  25.770   5.499 -0.0720 -0.1370  0.0340
    1OPC    C4B72229  24.741  25.974   5.749 -0.0868  0.1301 -0.0363
    1OPC    NC372230  24.402   3.547   7.121  0.0978  0.3632  0.0368
    1OPC    PO472231  24.639   3.319   6.759  0.0300 -0.0284  0.0033
    1OPC    GL172232  24.733   3.148   6.304 -0.2401  0.3445 -0.0550
    1OPC    GL272233  24.796   3.034   6.019  0.3074  0.0746  0.1942
    1OPC    C1B72234  24.831   2.971   5.651 -0.1524 -0.2727 -0.0834
    1OPC    D2B72235  24.737   3.218   5.271  0.1685  0.1827 -0.1006
    1OPC    C3B72236  24.313   3.203   5.103 -0.4863  0.1464 -0.1268
    1OPC    C4B72237  24.192   3.137   4.751 -0.1799  0.0053 -0.1404
    1OPC    NC372238  28.292  18.893   5.997 -0.0216  0.4642 -0.2018
    1OPC    PO472239  28.499  19.017   5.725 -0.2286 -0.0192 -0.0594
    1OPC    GL172240  28.407  18.794   5.431  0.0631 -0.1071 -0.2576
    1OPC    GL272241  28.571  18.755   5.108 -0.0961  0.0485  0.1357
    1OPC    C1B72242  28.511  18.873   4.706 -0.0182 -0.3656  0.1560
    1OPC    D2B72243  28.263  19.049   4.373  0.2653 -0.0607 -0.0412
    1OPC    C3B72244  28.361  19.075   3.916 -0.0274 -0.1367  0.2195
    1OPC    C4B72245  28.218  18.802   3.634  0.3125  0.2204  0.2413
    1OPC    NC372246   5.317   2.690   7.642  0.2776  0.1374  0.3728
    1OPC    PO472247   5.460   2.988   7.475 -0.1523  0.0880 -0.1413
    1OPC    GL172248   5.350   3.062   7.062  0.3030 -0.2584 -0.3034
    1OPC    GL272249   5.392   2.929   6.756 -0.2435 -0.1084 -0.2189
    1OPC    C1B72250   5.343   3.017   6.235 -0.0833  0.3798  0.0082
    1OPC    D2B72251   5.334   2.970   5.815  0.4108  0.2754  0.0100
    1OPC    C3B72252   5.029   2.839   5.579  0.2281  0.2366  0.1521
    1OPC    C4B72253   4.811   2.564   5.252 -0.0656  0.1204 -0.2194
    1OPC    NC372254  29.395   2.343   6.883  0.1606 -0.1576 -0.1013
    1OPC    PO472255  29.133   2.417   6.565  0.3713  0.0236 -0.0130
    1OPC    GL172256  28.978   2.265   6.121  0.2016 -0.1488  0.2642
    1OPC    GL272257  28.743   2.385   5.960  0.2287 -0.0909  0.0751
    1OPC    C1B72258  28.528   2.277   5.645  0.1022  0.0548  0.1658
    1OPC    D2B72259  28.654   2.194   5.131 -0.0583 -0.1448 -0.0461
    1OPC    C3B72260  28.736   1.783   4.931  0.2249 -0.0646 -0.1428
    1OPC    C4B72261  28.785   1.309   4.851 -0.1890 -0.2123  0.1379
    1OPC    NC372262  25.725  24.489   6.657  0.1800  0.3703  0.0053
    1OPC    PO472263  25.867  24.102   6.454 -0.1431 -0.2301  0.3218
    1OPC    GL172264  25.941  23.953   6.038 -0.3143 -0.0833  0.0719
    1OPC    GL272265  26.081  23.983   5.808 -0.1003  0.2799 -0.2756
    1OPC    C1B72266  26.240  23.642   5.508 -0.0689  0.0645  0.1202
    1OPC    D2B72267  26.647  23.556   5.421  0.0968  0.0117 -0.1501
    1OPC    C3B72268  26.805  23.608   4.983 -0.2135 -0.1840 -0.1886
    1OPC    C4B72269  27.052  24.007   4.799  0.2770 -0.3171  0.1524
    1OPC    NC372270   3.639  25.510   6.506 -0.0528  0.0449  0.0136
    1OPC    PO472271   3.630  25.418   6.033 -0.0027 -0.0378  0.0317
    1OPC    GL172272   3.660  25.349   5.575 -0.3375  0.2366 -0.1155
    1OPC    GL272273   3.629  25.319   5.246 -0.0728  0.2327 -0.1726
    1OPC    C1B72274   3.777  25.284   4.795 -0.1588  0.0438 -0.2562
    1OPC    D2B72275   3.947  25.387   4.420  0.1331  0.0541 -0.0676
    1OPC    C3B72276   3.827  25.550   3.978  0.0346  0.1237  0.1374
    1OPC    C4B72277   4.106  25.645   3.662 -0.0887 -0.1405 -0.2209
    1OPC    NC372278   8.171  11.475   7.750  0.0400  0.3199 -0.2241
    1OPC    PO472279   8.669  11.480   7.934 -0.0502 -0.0204 -0.1041
    1OPC    GL172280   8.836  11.188   7.509 -0.0527 -0.0149 -0.1786
    1OPC    GL272281   9.114  11.127   7.253 -0.0592 -0.2548 -0.0222
    1OPC    C1B72282   9.182  10.928   6.849 -0.1653  0.0464 -0.1841
    1OPC    D2B72283   9.384  10.739   6.491  0.2015  0.1569  0.1429
    1OPC    C3B72284   9.269  10.677   6.124 -0.2010  0.2443 -0.0940
    1OPC    C4B72285   8.883  10.721   6.011 -0.1245  0.2043  0.0376
    1OPC    NC372286  22.737  27.451   7.382 -0.3818 -0.2201  0.2226
    1OPC    PO472287  22.570  27.401   6.980  0.3738 -0.2445  0.2628
    1OPC    GL172288  22.830  27.530   6.626  0.1424  0.2925  0.2001
    1OPC    GL272289  22.875  27.555   6.251 -0.0014  0.0292 -0.3767
    1OPC    C1B72290  22.949  27.528   5.864  0.3166  0.0136 -0.0462
    1OPC    D2B72291  23.144  27.193   5.641 -0.1363  0.0099  0.0943
    1OPC    C3B72292  23.268  27.254   5.290  0.0353  0.2411 -0.1487
    1OPC    C4B72293  23.604  27.079   5.060 -0.2248 -0.1527  0.0874
    1OPC    NC372294  11.999  22.955   6.665 -0.1131 -0.0609  0.0413
    1OPC    PO472295  11.875  22.948   6.332 -0.1319  0.1664 -0.0035
    1OPC    GL172296  12.263  22.863   6.098  0.1560  0.1204 -0.0433
    1OPC    GL272297  12.484  22.654   5.900 -0.1526  0.4148  0.1958
    1OPC    C1B72298  12.757  22.622   5.519  0.2924 -0.0165  0.0239
    1OPC    D2B72299  12.799  22.890   5.104  0.2427  0.2020 -0.1434
    1OPC    C3B72300  12.805  22.678   4.695  0.2656  0.0577 -0.1384
    1OPC    C4B72301  12.923  22.226   4.687  0.0438  0.0738 -0.1891
    1OPC    NC372302   3.576   6.480   7.682  0.0572  0.2161 -0.1468
    1OPC    PO472303   3.593   6.301   7.273 -0.1238 -0.0158 -0.0284
    1OPC    GL172304   3.862   6.357   6.865 -0.1348  0.1492 -0.2097
    1OPC    GL272305   3.936   6.343   6.579  0.0547  0.4967  0.4637
    1OPC    C1B72306   4.306   6.535   6.326 -0.0316  0.2194 -0.1812
    1OPC    D2B72307   4.776   6.609   6.136  0.1191 -0.0540  0.1110
    1OPC    C3B72308   4.799   6.778   5.778  0.1920  0.0514  0.1787
    1OPC    C4B72309   4.754   6.984   5.390 -0.3932  0.0631 -0.1676
    1OPC    NC372310  18.325   6.952   7.798  0.1888 -0.1697  0.1915
    1OPC    PO472311  18.102   7.009   7.451  0.2537 -0.1960  0.0816
    1OPC    GL172312  18.242   6.893   7.065 -0.1501  0.1106 -0.0904
    1OPC    GL272313  18.246   6.881   6.731 -0.1833  0.1800 -0.1984
    1OPC    C1B72314  18.260   6.866   6.229  0.4031 -0.2671 -0.2065
    1OPC    D2B72315  18.422   6.742   5.856 -0.1495 -0.2825  0.0682
    1OPC    C3B72316  18.744   6.506   5.684 -0.2163  0.0676 -0.2859
    1OPC    C4B72317  19.139   6.437   5.453  0.0814  0.0103  0.1807
    1OPC    NC372318  14.873  23.768   6.787  0.1401  0.3583  0.0212
    1OPC    PO472319  14.530  23.530   6.702 -0.0637  0.3988  0.1828
    1OPC    GL172320  14.585  23.783   6.299 -0.2980 -0.3529  0.0219
    1OPC    GL272321  14.459  23.932   6.058 -0.1410  0.0742  0.0812
    1OPC    C1B72322  14.425  24.284   5.790  0.1508 -0.0973 -0.0224
    1OPC    D2B72323  14.069  24.481   5.493  0.2625  0.0058  0.0175
    1OPC    C3B72324  13.694  24.260   5.341 -0.0373  0.0601 -0.0129
    1OPC    C4B72325  13.305  24.083   5.127  0.1720  0.0108  0.1802
    1OPC    NC372326   7.364   0.272   7.435 -0.0692  0.0448  0.0329
    1OPC    PO472327   7.090  -0.046   7.434  0.2469  0.0733  0.1455
    1OPC    GL172328   6.660   0.202   7.314  0.1913  0.3104 -0.0564
    1OPC    GL272329   6.520   0.099   7.089 -0.1171 -0.0612 -0.2899
    1OPC    C1B72330   6.321  -0.133   6.705 -0.3799 -0.2271 -0.0367
    1OPC    D2B72331   6.037  -0.034   6.308  0.0660 -0.2503 -0.0477
    1OPC    C3B72332   5.858  -0.139   5.873 -0.0818  0.0487 -0.0822
    1OPC    C4B72333   5.509  -0.041   5.723 -0.1041  0.3760 -0.0427
    1OPC    NC372334  12.020  22.366   7.324 -0.1558 -0.2220 -0.2714
    1OPC    PO472335  12.113  22.605   6.991  0.0087 -0.2367  0.0282
    1OPC    GL172336  12.398  22.476   6.636  0.1847  0.3872 -0.3332
    1OPC    GL272337  12.400  22.295   6.309  0.0494 -0.0893  0.1768
    1OPC    C1B72338  12.384  22.172   5.883 -0.1850 -0.0942 -0.0921
    1OPC    D2B72339  12.520  22.152   5.492  0.0331 -0.0191 -0.1138
    1OPC    C3B72340  12.507  22.028   5.095 -0.1125 -0.0313  0.3847
    1OPC    C4B72341  12.575  21.793   4.648 -0.0492  0.1717 -0.3425
    1OPC    NC372342  24.791  30.119   6.777 -0.4571  0.2630  0.0703
    1OPC    PO472343  24.919  30.468   6.948  0.0660  0.0102 -0.1883
    1OPC    GL172344  24.877  30.460   6.445 -0.1871  0.2493 -0.0997
    1OPC    GL272345  25.062  30.568   6.274 -0.0703  0.2325  0.0078
    1OPC    C1B72346  25.167  30.704   5.837 -0.0518 -0.1218 -0.3329
    1OPC    D2B72347  24.992  30.493   5.501 -0.1388  0.2308  0.3281
    1OPC    C3B72348  24.868  30.611   5.153 -0.0229 -0.3365 -0.0703
    1OPC    C4B72349  24.404  30.516   4.987 -0.1403  0.1503  0.1799
    1OPC    NC372350  30.102  20.491   6.550  0.1328  0.1105 -0.1232
    1OPC    PO472351  29.859  20.689   6.217  0.0698  0.2862 -0.0759
    1OPC    GL172352  29.729  20.503   5.852  0.1196 -0.2161 -0.2690
    1OPC    GL272353  29.705  20.466   5.504  0.1086 -0.2185 -0.0891
    1OPC    C1B72354  29.632  20.678   5.203 -0.3664  0.1287 -0.1676
    1OPC    D2B72355  29.634  20.862   4.794  0.1858 -0.1792  0.2135
    1OPC    C3B72356  29.831  20.584   4.540 -0.0182 -0.1039  0.4470
    1OPC    C4B72357  29.835  20.564   4.174  0.0073  0.1076  0.0946
    1OPC    NC372358  14.249  22.666   6.350 -0.0014 -0.2254  0.3572
    1OPC    PO472359  14.473  23.051   6.424 -0.0553 -0.0331  0.0603
    1OPC    GL172360  14.668  23.312   6.176  0.0633  0.1051  0.0933
    1OPC    GL272361  14.557  23.422   5.925  0.0479 -0.1701 -0.2427
    1OPC    C1B72362  14.379  23.636   5.614  0.0898 -0.0267 -0.0971
    1OPC    D2B72363  14.156  23.993   5.416 -0.2707  0.0831  0.0107
    1OPC    C3B72364  14.010  23.938   5.001 -0.0398 -0.0133 -0.0414
    1OPC    C4B72365  13.693  24.075   4.773 -0.1567 -0.3644 -0.1505
    1OPC    NC372366  26.778  12.242   6.316  0.0271  0.1684 -0.1135
    1OPC    PO472367  27.120  12.491   6.013 -0.0805  0.1320  0.0130
    1OPC    GL172368  26.880  12.342   5.536 -0.1407 -0.0514  0.1763
    1OPC    GL272369  26.765  12.152   5.324 -0.2858  0.0002  0.0075
    1OPC    C1B72370  26.552  11.971   4.997 -0.2591  0.2905  0.0102
    1OPC    D2B72371  26.444  11.632   4.669  0.1695 -0.1010  0.1959
    1OPC    C3B72372  26.531  11.776   4.224  0.0927  0.3299 -0.1590
    1OPC    C4B72373  26.371  12.083   3.925  0.1778 -0.2301  0.0274
    1OPC    NC372374   4.874  25.224   5.804 -0.2682 -0.0764 -0.0038
    1OPC    PO472375   4.403  25.434   5.655  0.2170 -0.0486  0.1610
    1OPC    GL172376   4.592  25.304   5.315 -0.1727  0.1038  0.2651
    1OPC    GL272377   4.808  25.348   5.116 -0.0606  0.0241  0.0898
    1OPC    C1B72378   4.918  25.458   4.669 -0.2472 -0.1364 -0.2169
    1OPC    D2B72379   4.577  25.664   4.393  0.1557 -0.0327  0.0086
    1OPC    C3B72380   4.318  25.454   4.102  0.0733 -0.1002 -0.1283
    1OPC    C4B72381   4.097  25.020   3.980  0.1071 -0.1559  0.2247
    1OPC    NC372382  20.719  20.956   6.743 -0.3250 -0.0967 -0.1165
    1OPC    PO472383  20.412  21.063   6.391 -0.4454 -0.0066  0.1033
    1OPC    GL172384  20.235  21.139   5.972  0.0483  0.0035  0.0144
    1OPC    GL272385  20.149  21.206   5.618  0.0464 -0.1389  0.1260
    1OPC    C1B72386  20.002  21.124   5.228 -0.0444 -0.2417  0.0602
    1OPC    D2B72387  20.022  21.097   4.843  0.0646 -0.2867  0.1456
    1OPC    C3B72388  20.237  20.637   4.684 -0.0979  0.0133  0.1616
    1OPC    C4B72389  20.219  20.367   4.321  0.0258 -0.0607  0.0428
    1OPC    NC372390  27.719   0.066   6.407  0.1682  0.0266  0.2356
    1OPC    PO472391  27.355   0.221   6.532  0.0732  0.1261  0.3488
    1OPC    GL172392  27.088   0.160   6.333  0.2402  0.1140 -0.1453
    1OPC    GL272393  26.978   0.089   6.019  0.3007  0.0755  0.0613
    1OPC    C1B72394  27.021   0.153   5.495  0.1213 -0.0395 -0.2471
    1OPC    D2B72395  26.784   0.049   5.103  0.2870  0.0448  0.0095
    1OPC    C3B72396  26.834  -0.281   4.828  0.0108 -0.0386  0.3594
    1OPC    C4B72397  26.844  -0.495   4.501 -0.4747  0.0680  0.1275
    1OPC    NC372398  25.016   9.232   6.629  0.0886  0.2509  0.0596
    1OPC    PO472399  25.473   9.106   6.523  0.3681  0.0987 -0.0519
    1OPC    GL172400  25.660   8.824   6.165 -0.0247  0.3841 -0.0675
    1OPC    GL272401  25.498   8.692   5.848 -0.1420 -0.1332 -0.1079
    1OPC    C1B72402  25.201   8.509   5.630  0.2118  0.3442  0.1615
    1OPC    D2B72403  24.860   8.706   5.409  0.1876  0.3544  0.0294
    1OPC    C3B72404  24.837   8.820   5.004  0.2737 -0.1220 -0.1359
    1OPC    C4B72405  24.753   8.595   4.579 -0.0049 -0.3460 -0.1345
    1OPC    NC372406  26.246  20.845   6.304 -0.1844 -0.3892  0.1609
    1OPC    PO472407  26.354  21.296   6.485  0.0342  0.0340 -0.3721
    1OPC    GL172408  26.680  21.058   6.362 -0.2504  0.0589 -0.5185
    1OPC    GL272409  26.767  21.047   6.027 -0.2026  0.0599 -0.0126
    1OPC    C1B72410  26.796  20.728   5.638  0.0516  0.2950  0.1938
    1OPC    D2B72411  27.093  20.737   5.317  0.0621 -0.2522  0.0623
    1OPC    C3B72412  27.146  21.017   5.069  0.0976 -0.2616 -0.0181
    1OPC    C4B72413  27.134  21.379   4.857  0.0681 -0.0387 -0.2029
    1OPC    NC372414  18.248  24.362   7.084 -0.0951 -0.3762 -0.4046
    1OPC    PO472415  18.691  24.490   7.054  0.1130  0.1889  0.0412
    1OPC    GL172416  18.913  24.679   6.708  0.0616  0.0776 -0.0973
    1OPC    GL272417  18.805  24.866   6.426  0.1215  0.1988 -0.0271
    1OPC    C1B72418  18.466  25.123   6.236 -0.1554  0.0477  0.3307
    1OPC    D2B72419  18.321  24.973   5.790 -0.0961 -0.1425  0.2055
    1OPC    C3B72420  18.665  24.986   5.412  0.1517 -0.2923 -0.0093
    1OPC    C4B72421  18.618  25.159   4.997 -0.0469  0.2308 -0.2562
    1OPC    NC372422   3.524  24.778   5.844  0.3794 -0.5186 -0.0134
    1OPC    PO472423   3.183  24.508   6.039  0.2606 -0.0747 -0.0393
    1OPC    GL172424   3.011  24.774   5.781  0.1265 -0.0079  0.0169
    1OPC    GL272425   3.195  24.931   5.476  0.1090  0.0838  0.3591
    1OPC    C1B72426   3.150  25.261   5.124 -0.1628  0.2457 -0.2008
    1OPC    D2B72427   3.223  25.137   4.664  0.1060 -0.1541  0.2039
    1OPC    C3B72428   3.413  25.517   4.370 -0.0066  0.0297 -0.1546
    1OPC    C4B72429   3.327  25.581   3.888 -0.1069  0.0732 -0.1035
    1OPC    NC372430  13.229  30.110   7.254 -0.3817 -0.2447  0.0508
    1OPC    PO472431  13.559  29.764   7.294  0.3086 -0.2333 -0.1573
    1OPC    GL172432  13.545  29.901   6.909  0.2036  0.0917 -0.1728
    1OPC    GL272433  13.295  29.977   6.701 -0.0115  0.0199 -0.2673
    1OPC    C1B72434  13.358  30.021   6.160  0.0550 -0.0245  0.2173
    1OPC    D2B72435  13.316  30.279   5.886 -0.1160 -0.3325 -0.1738
    1OPC    C3B72436  12.903  30.455   5.826  0.2884  0.1089 -0.2668
    1OPC    C4B72437  12.531  30.235   5.585 -0.1639  0.0366 -0.1973
    1OPC    NC372438  27.036   7.238   6.581  0.2510  0.0919  0.3334
    1OPC    PO472439  26.848   6.806   6.475 -0.1534 -0.0063  0.1919
    1OPC    GL172440  26.820   6.673   6.082 -0.1636 -0.2737 -0.1681
    1OPC    GL272441  26.642   6.750   5.895 -0.2383 -0.0341 -0.1680
    1OPC    C1B72442  26.437   6.727   5.436  0.2492 -0.0439 -0.0311
    1OPC    D2B72443  26.054   6.592   5.226 -0.2085 -0.5559  0.2850
    1OPC    C3B72444  25.655   6.423   5.344  0.0711  0.0918 -0.0489
    1OPC    C4B72445  25.265   6.504   5.253  0.2055  0.0979 -0.1612
    1OPC    NC372446  18.703   4.023   7.711  0.0488 -0.1613 -0.1620
    1OPC    PO472447  18.759   4.524   7.503 -0.1399 -0.1071  0.0988
    1OPC    GL172448  18.946   4.352   7.115 -0.0269  0.2669  0.0286
    1OPC    GL272449  18.891   4.199   6.800 -0.0861 -0.1638  0.0724
    1OPC    C1B72450  18.682   4.331   6.456 -0.0678 -0.2436 -0.0060
    1OPC    D2B72451  18.970   4.278   6.127  0.0977 -0.1912  0.4462
    1OPC    C3B72452  19.324   4.486   6.065  0.2251 -0.0593 -0.0406
    1OPC    C4B72453  19.609   4.717   6.353 -0.0859  0.3656 -0.0807
    1OPC    NC372454   9.028   5.213   7.762  0.0527  0.2144 -0.2325
    1OPC    PO472455   9.009   5.154   7.308 -0.2575 -0.2388 -0.3210
    1OPC    GL172456   9.106   5.376   6.853 -0.0696 -0.1079 -0.1179
    1OPC    GL272457   9.163   5.676   6.645  0.1064 -0.0858 -0.0251
    1OPC    C1B72458   9.226   5.766   6.171 -0.1265 -0.1508  0.2490
    1OPC    D2B72459   9.504   5.985   5.824 -0.0291  0.3645 -0.0245
    1OPC    C3B72460   9.374   6.391   5.717 -0.0315  0.4102 -0.3492
    1OPC    C4B72461   9.453   6.688   5.413 -0.0548  0.1725  0.1602
    1OPC    NC372462  15.454   6.974   8.140 -0.0573 -0.2288 -0.1747
    1OPC    PO472463  15.785   7.121   7.855 -0.0075  0.2397  0.2254
    1OPC    GL172464  15.857   6.950   7.504 -0.0736  0.2671  0.3262
    1OPC    GL272465  15.753   6.819   7.276  0.0110 -0.3711 -0.0301
    1OPC    C1B72466  15.716   6.800   6.815  0.0181 -0.1382 -0.1636
    1OPC    D2B72467  15.412   6.858   6.532 -0.1816 -0.1725 -0.3380
    1OPC    C3B72468  15.316   6.755   6.143  0.4869  0.3552 -0.1612
    1OPC    C4B72469  15.433   6.725   5.749  0.0109  0.1805 -0.1334
    1OPC    NC372470   8.978  26.002   6.684 -0.0002  0.0928 -0.0267
    1OPC    PO472471   9.077  25.618   6.437 -0.1896 -0.0501 -0.1131
    1OPC    GL172472   9.089  25.781   5.963 -0.2238 -0.1702 -0.2610
    1OPC    GL272473   9.386  25.953   5.796  0.2364  0.1546  0.0492
    1OPC    C1B72474   9.557  25.950   5.352 -0.0608  0.2826  0.1454
    1OPC    D2B72475   9.581  26.148   4.916  0.2021 -0.3232 -0.0071
    1OPC    C3B72476   9.697  25.918   4.575  0.0054  0.0740 -0.1519
    1OPC    C4B72477   9.928  25.522   4.423 -0.0394  0.0445  0.1891
    1OPC    NC372478   9.746   3.702   6.855  0.3131  0.3563  0.3718
    1OPC    PO472479   9.411   3.777   7.156  0.0908 -0.0123 -0.2452
    1OPC    GL172480   9.191   3.669   6.774 -0.0839 -0.1055 -0.0378
    1OPC    GL272481   9.205   3.546   6.483 -0.2925  0.1295  0.0004
    1OPC    C1B72482   9.081   3.363   6.073  0.0165 -0.2200  0.4751
    1OPC    D2B72483   8.925   3.471   5.684  0.0902  0.0622  0.3766
    1OPC    C3B72484   8.787   3.467   5.246  0.1401 -0.1080 -0.1951
    1OPC    C4B72485   8.653   3.769   5.046  0.0040 -0.2965 -0.0420
    1OPC    NC372486  28.943  10.026   6.664  0.3326 -0.1581 -0.0352
    1OPC    PO472487  29.272   9.958   6.387  0.0497 -0.2157 -0.1702
    1OPC    GL172488  29.162   9.946   5.954 -0.5305 -0.1303 -0.0619
    1OPC    GL272489  29.274   9.980   5.583 -0.0305 -0.0025 -0.1703
    1OPC    C1B72490  29.448   9.888   5.203 -0.0362  0.1376  0.1144
    1OPC    D2B72491  29.592   9.899   4.826 -0.0841 -0.2761  0.0950
    1OPC    C3B72492  29.873  10.181   4.795 -0.0485 -0.0775 -0.0646
    1OPC    C4B72493  29.922  10.698   4.743 -0.2603  0.1249  0.0554
    1OPC    NC372494  27.760   8.950   6.435 -0.1099 -0.0284  0.1237
    1OPC    PO472495  28.127   9.138   6.241  0.2552 -0.0239  0.0294
    1OPC    GL172496  28.074   9.351   5.898 -0.1301  0.1815 -0.0981
    1OPC    GL272497  28.046   9.299   5.645  0.1291  0.2627 -0.0673
    1OPC    C1B72498  27.954   9.288   5.272 -0.1432 -0.2175  0.2188
    1OPC    D2B72499  27.749   9.398   4.880  0.0169  0.0096 -0.2010
    1OPC    C3B72500  27.433   9.450   4.742 -0.2787  0.1281 -0.0400
    1OPC    C4B72501  27.342   9.602   4.341  0.4781  0.0129  0.0006
    1OPC    NC372502  28.663  19.243   6.338  0.1300  0.2383 -0.0228
    1OPC    PO472503  28.643  19.439   5.981 -0.2109  0.1950 -0.1732
    1OPC    GL172504  28.724  19.473   5.586 -0.0441 -0.1141  0.0154
    1OPC    GL272505  28.818  19.300   5.349 -0.0092 -0.0695  0.1545
    1OPC    C1B72506  28.897  19.043   4.931 -0.1277 -0.1017  0.3135
    1OPC    D2B72507  28.974  18.786   4.562 -0.0318  0.0605  0.3263
    1OPC    C3B72508  29.197  18.876   4.256  0.0373  0.1391  0.4461
    1OPC    C4B72509  29.525  19.023   4.108 -0.1814  0.2017  0.2477
    1OPC    NC372510  15.162   4.869   7.502 -0.1327  0.0842  0.0648
    1OPC    PO472511  15.160   5.347   7.410 -0.0358 -0.0173  0.1218
    1OPC    GL172512  14.921   5.471   6.956 -0.0433 -0.1452 -0.1390
    1OPC    GL272513  14.743   5.268   6.710  0.0554 -0.1580  0.2947
    1OPC    C1B72514  14.420   5.236   6.498 -0.2877  0.0408  0.3154
    1OPC    D2B72515  14.391   5.147   6.113  0.0940  0.0618  0.0646
    1OPC    C3B72516  14.738   5.132   5.706 -0.3682  0.4124  0.0158
    1OPC    C4B72517  14.908   5.431   5.506 -0.1622 -0.0604  0.1762
    1OPC    NC372518  12.685   0.597   7.643  0.0285  0.1949  0.4324
    1OPC    PO472519  12.331   0.830   7.471 -0.0973  0.2561  0.3954
    1OPC    GL172520  12.570   0.693   7.134 -0.0346 -0.0975  0.0764
    1OPC    GL272521  12.762   0.558   6.950  0.1119 -0.2617  0.0776
    1OPC    C1B72522  12.734   0.621   6.511  0.0458 -0.4072  0.2737
    1OPC    D2B72523  12.530   0.438   6.140  0.2138 -0.0077  0.2166
    1OPC    C3B72524  12.503   0.681   5.750 -0.0594  0.4034  0.0395
    1OPC    C4B72525  12.402   1.074   5.575 -0.0516  0.0215  0.1328
    1OPC    NC372526  20.790  26.015   6.477 -0.0325  0.1203  0.2103
    1OPC    PO472527  21.166  26.088   6.591  0.5322 -0.1193 -0.2548
    1OPC    GL172528  21.073  25.639   6.400 -0.3156 -0.1357  0.3944
    1OPC    GL272529  20.975  25.412   6.202 -0.1682 -0.0421  0.2167
    1OPC    C1B72530  20.662  25.337   5.842  0.0081 -0.3485 -0.1524
    1OPC    D2B72531  20.420  25.559   5.434 -0.2170  0.2172 -0.1486
    1OPC    C3B72532  20.443  25.960   5.258 -0.2591  0.1026  0.0445
    1OPC    C4B72533  20.185  26.326   5.272  0.1358  0.2615 -0.2952
    1OPC    NC372534  25.953  11.706   5.774  0.1317  0.2671  0.1111
    1OPC    PO472535  25.691  11.496   5.702  0.0238 -0.0258  0.0630
    1OPC    GL172536  25.968  11.120   5.702 -0.1679  0.0450  0.0840
    1OPC    GL272537  25.962  10.845   5.560 -0.3962  0.0539 -0.0051
    1OPC    C1B72538  25.777  10.708   5.070 -0.3616 -0.1132 -0.0661
    1OPC    D2B72539  25.432  10.872   4.674  0.0022 -0.3168  0.0675
    1OPC    C3B72540  25.407  10.662   4.280  0.0348  0.2879 -0.0629
    1OPC    C4B72541  25.484  10.262   3.989  0.1722  0.0138  0.0011
    1OPC    NC372542  22.624  12.446   6.772 -0.0380  0.1183 -0.0870
    1OPC    PO472543  22.782  12.375   6.319  0.2161  0.1561  0.0360
    1OPC    GL172544  22.755  12.111   5.995  0.0239 -0.1731  0.0707
    1OPC    GL272545  22.515  12.018   5.844 -0.0558 -0.0169  0.0135
    1OPC    C1B72546  22.134  11.906   5.555 -0.1123 -0.0050 -0.0448
    1OPC    D2B72547  21.763  11.866   5.335  0.1186 -0.1209  0.0637
    1OPC    C3B72548  21.672  11.442   5.153 -0.1134  0.1708 -0.2253
    1OPC    C4B72549  21.523  11.453   4.765  0.1292 -0.2406  0.1263
    1OPC    NC372550  26.781   5.811   6.669 -0.5264 -0.0532 -0.2059
    1OPC    PO472551  26.642   5.436   6.745 -0.1072 -0.2115  0.0233
    1OPC    GL172552  26.439   5.382   6.371  0.4457 -0.0819 -0.0354
    1OPC    GL272553  26.474   5.326   5.992  0.2139  0.2112 -0.1851
    1OPC    C1B72554  26.351   5.025   5.734  0.0699 -0.0535 -0.0921
    1OPC    D2B72555  26.516   4.843   5.388  0.1161 -0.0889  0.3013
    1OPC    C3B72556  26.249   4.570   5.195  0.0085 -0.0732  0.1344
    1OPC    C4B72557  25.969   4.362   5.054  0.2541  0.2213  0.0156
    1OPC    NC372558   2.333   9.420   7.066  0.1343 -0.2152 -0.1844
    1OPC    PO472559   2.233   9.261   6.689 -0.0066  0.2615  0.2270
    1OPC    GL172560   2.292   9.405   6.350  0.3666  0.1096 -0.1458
    1OPC    GL272561   2.281   9.456   6.061 -0.0106  0.1247  0.1752
    1OPC    C1B72562   2.153   9.215   5.653  0.1667  0.1952 -0.1548
    1OPC    D2B72563   2.263   9.363   5.267  0.0267 -0.0797  0.1482
    1OPC    C3B72564   2.364   9.172   4.899 -0.0582 -0.2006  0.2012
    1OPC    C4B72565   2.287   9.415   4.400  0.1193  0.2629  0.2381
    1OPC    NC372566  24.453  27.568   6.746  0.1625  0.1234  0.0636
    1OPC    PO472567  24.840  27.344   6.762 -0.0038  0.0594  0.0282
    1OPC    GL172568  24.933  26.959   6.684 -0.2734  0.2348 -0.1251
    1OPC    GL272569  24.999  26.834   6.385  0.2471  0.1622  0.3893
    1OPC    C1B72570  24.741  26.546   6.080 -0.2162 -0.2061 -0.0049
    1OPC    D2B72571  24.610  26.462   5.708 -0.0206 -0.1448 -0.2176
    1OPC    C3B72572  24.905  26.686   5.391  0.1188 -0.0870 -0.0896
    1OPC    C4B72573  25.341  26.691   5.374 -0.0440 -0.3292  0.2288
    1OPC    NC372574   0.215  29.993   7.478  0.2474  0.4173 -0.0723
    1OPC    PO472575  -0.009  30.338   7.206  0.0653  0.3259  0.1077
    1OPC    GL172576   0.105  30.169   6.882  0.2652 -0.0471 -0.1110
    1OPC    GL272577   0.147  30.206   6.610  0.0302  0.3306  0.0830
    1OPC    C1B72578   0.022  29.936   6.112  0.2091  0.0158  0.2020
    1OPC    D2B72579   0.076  29.875   5.692  0.0657  0.2877 -0.1049
    1OPC    C3B72580   0.308  29.735   5.502 -0.0677  0.1375  0.1187
    1OPC    C4B72581   0.696  29.450   5.505 -0.2416  0.1924 -0.0998
    1OPC    NC372582  24.161  19.071   6.106  0.1072  0.2052 -0.0167
    1OPC    PO472583  24.416  18.638   6.072 -0.2410  0.1222  0.3262
    1OPC    GL172584  24.035  18.738   5.743 -0.3365  0.0049 -0.0787
    1OPC    GL272585  24.080  19.049   5.578  0.1440  0.2072  0.1485
    1OPC    C1B72586  23.790  19.089   5.275  0.1223  0.1087 -0.0285
    1OPC    D2B72587  23.700  19.014   4.826  0.2636  0.1209 -0.2124
    1OPC    C3B72588  23.531  19.196   4.559  0.3202  0.1238  0.0370
    1OPC    C4B72589  23.772  19.319   4.163 -0.0591  0.2909 -0.0371
    1OPC    NC372590   4.496   8.494   6.728 -0.2826  0.0186 -0.1037
    1OPC    PO472591   4.238   8.235   7.042  0.1161  0.0273 -0.1734
    1OPC    GL172592   4.013   8.248   6.654  0.1179 -0.0620 -0.3594
    1OPC    GL272593   4.007   8.105   6.354  0.0328  0.2340  0.3375
    1OPC    C1B72594   4.157   7.959   5.922  0.0333  0.1455  0.0355
    1OPC    D2B72595   4.185   7.738   5.500 -0.0596 -0.0194 -0.0273
    1OPC    C3B72596   4.623   7.833   5.374 -0.0081 -0.0072 -0.1736
    1OPC    C4B72597   4.993   7.999   5.464 -0.0798 -0.3301  0.2346
    1OPC    NC372598   7.022   7.899   8.174  0.1950  0.1364  0.2391
    1OPC    PO472599   6.553   8.008   8.068 -0.0147 -0.0982 -0.0170
    1OPC    GL172600   6.566   8.032   7.690  0.0773  0.5045  0.1099
    1OPC    GL272601   6.628   8.050   7.321  0.2283  0.1491 -0.2272
    1OPC    C1B72602   6.597   8.124   6.926  0.0108 -0.0313 -0.1427
    1OPC    D2B72603   6.797   7.924   6.587 -0.0628 -0.0430 -0.1319
    1OPC    C3B72604   6.680   7.891   6.103 -0.0463  0.0915 -0.3536
    1OPC    C4B72605   6.370   8.197   5.856 -0.1319  0.1905  0.0373
    1OPC    NC372606   1.218  29.090   7.115  0.3854  0.0693 -0.1415
    1OPC    PO472607   1.265  28.596   7.121 -0.3908  0.0725 -0.0582
    1OPC    GL172608   0.824  28.667   6.982 -0.1729 -0.1282  0.3323
    1OPC    GL272609   0.642  28.766   6.712 -0.2457 -0.2977  0.1386
    1OPC    C1B72610   0.521  28.727   6.270 -0.0365  0.2858  0.1007
    1OPC    D2B72611   0.475  28.941   5.867  0.0260  0.1128 -0.2521
    1OPC    C3B72612   0.573  28.915   5.397  0.2002  0.0179 -0.0245
    1OPC    C4B72613   0.597  29.174   5.093  0.1393  0.1752 -0.3437
    1OPC    NC372614   1.383  11.994   6.607 -0.3741 -0.1304  0.0370
    1OPC    PO472615   1.461  12.340   6.263 -0.0079  0.1686  0.4970
    1OPC    GL172616   1.611  12.422   5.902 -0.2591  0.1018  0.2198
    1OPC    GL272617   1.817  12.392   5.658 -0.1876  0.2104 -0.1148
    1OPC    C1B72618   1.965  12.290   5.259  0.2821 -0.0902 -0.1099
    1OPC    D2B72619   2.062  12.474   4.811 -0.0343 -0.1730  0.1681
    1OPC    C3B72620   1.793  12.678   4.465 -0.0324  0.0229  0.0649
    1OPC    C4B72621   1.849  12.839   4.044  0.0333 -0.1729 -0.2020
    1OPC    NC372622   6.298  10.049   7.294 -0.0089 -0.1243  0.2252
    1OPC    PO472623   6.514   9.696   7.223  0.0250  0.0674 -0.0263
    1OPC    GL172624   6.314   9.455   6.904  0.1902  0.0344 -0.1130
    1OPC    GL272625   6.292   9.107   6.810  0.1469  0.1732 -0.0874
    1OPC    C1B72626   6.196   8.672   6.584 -0.0686 -0.0842  0.1170
    1OPC    D2B72627   6.035   8.526   6.204  0.2799  0.0335 -0.5582
    1OPC    C3B72628   6.000   8.657   5.777  0.1957  0.1247 -0.2461
    1OPC    C4B72629   5.858   8.984   5.563  0.0727 -0.3468  0.1304
    1OPC    NC372630  19.030  20.944   6.270 -0.0597  0.0340 -0.1614
    1OPC    PO472631  19.472  20.792   6.324  0.2564 -0.0407  0.0771
    1OPC    GL172632  19.251  20.725   5.882  0.1468 -0.2431 -0.3737
    1OPC    GL272633  19.260  20.784   5.554  0.2047  0.0791 -0.0968
    1OPC    C1B72634  18.985  20.974   5.268  0.5601  0.1357 -0.0781
    1OPC    D2B72635  18.769  20.936   4.866 -0.0351 -0.0014  0.0102
    1OPC    C3B72636  18.518  20.628   4.662  0.0683  0.1155  0.3063
    1OPC    C4B72637  18.271  20.214   4.584  0.2825  0.1868  0.0616
    1OPC    NC372638  16.801  26.605   2.762  0.0510  0.1217  0.0505
    1OPC    PO472639  17.121  26.304   2.915  0.2152  0.3851  0.2100
    1OPC    GL172640  16.774  26.301   3.180  0.1860 -0.2106  0.1153
    1OPC    GL272641  16.644  26.490   3.487 -0.1630  0.0965 -0.3588
    1OPC    C1B72642  16.644  26.307   3.976 -0.5632 -0.1094  0.0930
    1OPC    D2B72643  16.782  26.149   4.376 -0.1761  0.1207 -0.0352
    1OPC    C3B72644  16.544  26.076   4.815 -0.0655 -0.2443  0.1623
    1OPC    C4B72645  16.370  26.190   5.101 -0.1992  0.0786 -0.1123
    1OPC    NC372646  25.518  14.676   0.862  0.3176 -0.2323 -0.2550
    1OPC    PO472647  25.602  14.372   1.222  0.1988 -0.0798 -0.1166
    1OPC    GL172648  25.662  14.206   1.601 -0.1258 -0.4490  0.0701
    1OPC    GL272649  25.770  14.209   1.951 -0.0776 -0.0709 -0.0718
    1OPC    C1B72650  25.867  14.391   2.385 -0.0747  0.0133 -0.2299
    1OPC    D2B72651  25.995  14.394   2.825 -0.0058 -0.0313 -0.3392
    1OPC    C3B72652  26.169  14.672   3.041 -0.1085  0.2041 -0.2317
    1OPC    C4B72653  26.090  14.818   3.471 -0.1397 -0.1392  0.1672
    1OPC    NC372654  10.658  24.407   1.620 -0.2403 -0.2804  0.1295
    1OPC    PO472655  10.365  24.222   1.947 -0.0686 -0.0677  0.0326
    1OPC    GL172656  10.366  24.294   2.373  0.0204 -0.1799 -0.0600
    1OPC    GL272657  10.337  24.359   2.651 -0.1000 -0.0966 -0.0303
    1OPC    C1B72658  10.191  24.343   3.080  0.0704 -0.2796 -0.0181
    1OPC    D2B72659   9.828  24.481   3.461  0.0940  0.0157 -0.0790
    1OPC    C3B72660   9.458  24.324   3.599 -0.2573  0.1307 -0.2968
    1OPC    C4B72661   9.045  24.425   3.781 -0.0840  0.1800 -0.1355
    1OPC    NC372662   9.198  20.146   2.361 -0.0236 -0.3394  0.1586
    1OPC    PO472663   9.629  20.176   2.297  0.0802  0.0224  0.1320
    1OPC    GL172664  10.059  20.364   2.394 -0.0543 -0.0950  0.2664
    1OPC    GL272665  10.167  20.337   2.740  0.2648 -0.1579  0.0149
    1OPC    C1B72666  10.049  20.317   3.117 -0.0460 -0.3407 -0.0128
    1OPC    D2B72667   9.792  20.209   3.471  0.0860 -0.0885 -0.0240
    1OPC    C3B72668   9.951  20.040   3.827  0.0904 -0.0113  0.1416
    1OPC    C4B72669   9.980  19.699   4.197 -0.0804 -0.1188 -0.0288
    1OPC    NC372670  12.221  26.969   3.225 -0.0888  0.0526 -0.1883
    1OPC    PO472671  12.158  26.554   2.988  0.1944  0.0719 -0.0090
    1OPC    GL172672  11.890  26.462   3.287 -0.1145  0.0959  0.0511
    1OPC    GL272673  11.678  26.262   3.406 -0.0970  0.1820 -0.0541
    1OPC    C1B72674  11.618  25.998   3.746  0.0978 -0.0467 -0.0435
    1OPC    D2B72675  11.165  25.952   3.761  0.0794  0.0162 -0.2041
    1OPC    C3B72676  10.964  26.247   3.990 -0.2520  0.0658 -0.0091
    1OPC    C4B72677  11.035  26.510   4.321 -0.0635  0.2251 -0.1880
    1OPC    NC372678   8.361   1.937   2.709  0.1991 -0.0583  0.0687
    1OPC    PO472679   8.457   2.268   3.006 -0.1818 -0.0552 -0.1706
    1OPC    GL172680   8.380   2.086   3.393  0.0208 -0.1153  0.1877
    1OPC    GL272681   8.518   2.138   3.660  0.0951  0.1079  0.1015
    1OPC    C1B72682   8.738   2.375   4.065  0.1475 -0.2084  0.0715
    1OPC    D2B72683   9.069   2.614   4.146 -0.1528  0.0604 -0.2902
    1OPC    C3B72684   9.018   2.677   4.525 -0.0148  0.0129  0.0430
    1OPC    C4B72685   8.722   2.682   4.915 -0.2202 -0.0977  0.1507
    1OPC    NC372686  19.095   6.955   2.203  0.1796  0.1379  0.1861
    1OPC    PO472687  19.215   7.050   2.583 -0.2242  0.0942 -0.3420
    1OPC    GL172688  19.443   7.267   3.030 -0.2039 -0.3963 -0.3927
    1OPC    GL272689  19.632   7.394   3.161  0.0404  0.0553  0.1205
    1OPC    C1B72690  19.859   7.509   3.617 -0.0399  0.1682 -0.1271
    1OPC    D2B72691  19.660   7.640   4.061  0.1501 -0.0810 -0.2729
    1OPC    C3B72692  19.903   7.772   4.372  0.1215 -0.1998  0.0307
    1OPC    C4B72693  19.839   7.685   4.806 -0.1593 -0.0751 -0.1922
    1OPC    NC372694   5.267  28.135   2.083 -0.2332 -0.1543 -0.0994
    1OPC    PO472695   5.549  27.990   2.400 -0.0711  0.1671  0.0797
    1OPC    GL172696   5.432  27.741   2.767 -0.0748  0.0157  0.2005
    1OPC    GL272697   5.317  27.518   2.978 -0.6283  0.1953  0.0119
    1OPC    C1B72698   5.518  27.274   3.406  0.0907  0.1788  0.4372
    1OPC    D2B72699   5.816  27.290   3.784  0.1073 -0.2406  0.1198
    1OPC    C3B72700   5.778  27.060   4.198  0.1225 -0.0626  0.2725
    1OPC    C4B72701   5.446  26.751   4.373  0.0225  0.1778 -0.2749
    1OPC    NC372702   7.507  19.635   1.590 -0.0502  0.0464  0.3238
    1OPC    PO472703   7.691  19.746   1.891 -0.1541 -0.0304 -0.3075
    1OPC    GL172704   7.745  19.868   2.324  0.0431  0.0502 -0.2867
    1OPC    GL272705   7.660  19.962   2.581 -0.1282  0.2361  0.0450
    1OPC    C1B72706   7.924  20.008   2.934 -0.1759  0.0771 -0.0314
    1OPC    D2B72707   7.908  19.965   3.402  0.0889  0.0299  0.0582
    1OPC    C3B72708   7.761  19.614   3.677  0.1824  0.3162 -0.0771
    1OPC    C4B72709   7.750  19.561   4.091  0.1081  0.0921  0.2980
    1OPC    NC372710  29.023  11.465   2.130 -0.1366 -0.0605 -0.1623
    1OPC    PO472711  28.877  11.757   1.789  0.2076  0.0656 -0.0980
    1OPC    GL172712  28.837  11.977   2.129 -0.0191  0.2940 -0.2179
    1OPC    GL272713  29.012  11.988   2.455  0.4397  0.2203 -0.0343
    1OPC    C1B72714  29.291  12.018   2.808 -0.1390  0.1385 -0.0676
    1OPC    D2B72715  29.262  11.767   3.122  0.1071 -0.0507 -0.2104
    1OPC    C3B72716  29.174  11.832   3.552 -0.3352  0.2549 -0.2002
    1OPC    C4B72717  29.264  11.954   4.047  0.1519 -0.1532  0.3799
    1OPC    NC372718   0.602  13.164   2.075 -0.1069 -0.4391 -0.0645
    1OPC    PO472719   0.936  13.463   2.251 -0.4578  0.0329 -0.0554
    1OPC    GL172720   0.755  13.294   2.572 -0.0297 -0.0901 -0.3082
    1OPC    GL272721   0.564  13.405   2.907 -0.2296  0.2611 -0.4537
    1OPC    C1B72722   0.460  13.075   3.275 -0.0235 -0.3949 -0.0039
    1OPC    D2B72723   0.621  12.608   3.359 -0.4495 -0.4107 -0.0580
    1OPC    C3B72724   0.485  12.331   3.783  0.0923 -0.1247 -0.1401
    1OPC    C4B72725   0.284  12.025   4.068  0.1812 -0.0228 -0.0980
    1OPC    NC372726  17.021   3.439   3.064  0.1443 -0.0083 -0.0201
    1OPC    PO472727  17.301   3.719   3.307  0.2627 -0.1494  0.0046
    1OPC    GL172728  17.114   3.979   3.628  0.1774  0.1037  0.0080
    1OPC    GL272729  17.094   3.819   3.968 -0.0671 -0.0683 -0.0230
    1OPC    C1B72730  16.906   3.916   4.415  0.1849  0.3224  0.0395
    1OPC    D2B72731  17.092   4.092   4.739 -0.0277 -0.1932 -0.0292
    1OPC    C3B72732  16.808   4.077   5.052 -0.1645  0.0277 -0.2381
    1OPC    C4B72733  16.491   3.844   5.311  0.3698 -0.1432 -0.2500
    1OPC    NC372734  14.512  21.460   1.979 -0.0519 -0.2217  0.2114
    1OPC    PO472735  14.890  21.410   2.141 -0.1453 -0.2332 -0.1875
    1OPC    GL172736  15.108  21.463   2.603  0.1037 -0.1854  0.0174
    1OPC    GL272737  15.276  21.609   2.797  0.0880 -0.2195  0.0430
    1OPC    C1B72738  15.505  21.721   3.254 -0.2192  0.0553  0.0021
    1OPC    D2B72739  15.565  21.932   3.635 -0.1071 -0.3751  0.0400
    1OPC    C3B72740  15.393  21.853   4.015 -0.2821 -0.0098 -0.3261
    1OPC    C4B72741  15.527  21.961   4.339 -0.0197 -0.0390  0.3360
    1OPC    NC372742  22.856  13.954   1.526  0.2081  0.0248  0.0032
    1OPC    PO472743  22.643  14.351   1.692  0.0470 -0.0972 -0.0603
    1OPC    GL172744  22.754  14.375   2.074  0.1985 -0.1795  0.1253
    1OPC    GL272745  22.748  14.194   2.357  0.2817  0.2263  0.0874
    1OPC    C1B72746  22.885  14.260   2.746 -0.0070  0.2452  0.1313
    1OPC    D2B72747  23.079  14.339   3.175 -0.0838  0.3219 -0.1140
    1OPC    C3B72748  22.798  14.282   3.466 -0.0602  0.3817  0.1562
    1OPC    C4B72749  22.446  14.214   3.792 -0.1066 -0.0539 -0.0687
    1OPC    NC372750  29.626  27.568   2.570 -0.0682 -0.1517 -0.2090
    1OPC    PO472751  30.088  27.469   2.724  0.2937 -0.0565  0.0749
    1OPC    GL172752  30.254  27.250   3.072 -0.1733  0.1957  0.0496
    1OPC    GL272753  30.145  27.175   3.423 -0.3175 -0.0044  0.0763
    1OPC    C1B72754  29.933  27.191   3.781 -0.0410  0.2900  0.1623
    1OPC    D2B72755  29.889  27.578   4.048 -0.3418  0.0413  0.1141
    1OPC    C3B72756  30.023  27.439   4.451 -0.0923 -0.2520 -0.0425
    1OPC    C4B72757  30.151  27.094   4.546  0.0532 -0.0148  0.3971
    1OPC    NC372758  24.158   0.817   2.745 -0.0103 -0.2635  0.0681
    1OPC    PO472759  24.476   0.939   3.138  0.2424 -0.0187  0.0133
    1OPC    GL172760  24.050   0.863   3.254 -0.1315  0.0922 -0.3970
    1OPC    GL272761  23.916   1.031   3.510  0.1169  0.0654  0.0505
    1OPC    C1B72762  23.965   1.332   3.779  0.0004  0.1340  0.2137
    1OPC    D2B72763  24.110   1.437   4.255  0.0233  0.1424  0.1427
    1OPC    C3B72764  23.868   1.137   4.497 -0.2060  0.0456 -0.0732
    1OPC    C4B72765  23.929   0.773   4.782  0.0398  0.2943 -0.0740
    1OPC    NC372766   1.646   0.128   2.446  0.4851  0.1407  0.2387
    1OPC    PO472767   1.303   0.288   2.697  0.2951  0.0580  0.3707
    1OPC    GL172768   1.299   0.080   2.964 -0.0737 -0.0428  0.1592
    1OPC    GL272769   1.374   0.180   3.313 -0.2685 -0.1003  0.0198
    1OPC    C1B72770   1.411   0.137   3.766  0.2825 -0.1047 -0.1274
    1OPC    D2B72771   1.120  -0.040   4.100  0.2280 -0.0487 -0.0289
    1OPC    C3B72772   1.334   0.212   4.374  0.0304  0.2904  0.0829
    1OPC    C4B72773   1.301   0.497   4.816 -0.3690  0.0928 -0.0607
    1OPC    NC372774  12.373  25.341   2.435  0.2395  0.1306 -0.0789
    1OPC    PO472775  12.608  25.245   2.859  0.0096  0.1874  0.0594
    1OPC    GL172776  12.454  25.191   3.283  0.0657  0.1019  0.0199
    1OPC    GL272777  12.575  25.264   3.522 -0.0208 -0.3811  0.2593
    1OPC    C1B72778  12.700  24.901   3.942 -0.2642 -0.1410  0.1705
    1OPC    D2B72779  13.030  24.998   4.200 -0.0605  0.1101 -0.1716
    1OPC    C3B72780  13.043  24.891   4.694 -0.0679  0.1804 -0.2207
    1OPC    C4B72781  13.174  24.975   5.047  0.2329 -0.1171 -0.1316
    1OPC    NC372782  10.483  27.869   2.349 -0.5030 -0.0199 -0.2144
    1OPC    PO472783  10.698  27.657   2.849  0.1735  0.0903 -0.0992
    1OPC    GL172784  10.714  27.385   3.105 -0.1600 -0.1127 -0.1218
    1OPC    GL272785  10.701  27.291   3.355 -0.2536  0.0925  0.1344
    1OPC    C1B72786  10.677  27.224   3.905  0.0902 -0.0081 -0.2891
    1OPC    D2B72787  10.725  27.434   4.199 -0.0355  0.2872 -0.0309
    1OPC    C3B72788  10.629  27.213   4.502 -0.1490 -0.0626  0.4216
    1OPC    C4B72789  10.683  26.825   4.593  0.1623 -0.0058 -0.1217
    1OPC    NC372790  23.996   8.732   2.219  0.2071 -0.0379 -0.3481
    1OPC    PO472791  23.670   8.987   2.332  0.2620  0.1817  0.0834
    1OPC    GL172792  23.464   9.071   2.668 -0.0350  0.0429 -0.2288
    1OPC    GL272793  23.542   8.936   2.920 -0.1396  0.2152 -0.1725
    1OPC    C1B72794  23.608   8.773   3.278  0.4649 -0.2653 -0.2034
    1OPC    D2B72795  23.789   9.010   3.623  0.2312  0.0688  0.1406
    1OPC    C3B72796  23.783   9.371   3.888 -0.1210 -0.1398 -0.2646
    1OPC    C4B72797  23.493   9.653   4.037  0.0603 -0.2306  0.0884
    1OPC    NC372798   7.639  27.520   2.368  0.1155  0.4263 -0.0753
    1OPC    PO472799   7.334  27.171   2.196  0.0791 -0.1559 -0.2633
    1OPC    GL172800   7.133  27.104   2.522  0.0733 -0.4474 -0.0906
    1OPC    GL272801   7.199  27.012   2.790 -0.2569  0.2084  0.0264
    1OPC    C1B72802   7.104  26.825   3.269 -0.1955  0.0612  0.2175
    1OPC    D2B72803   7.006  26.926   3.669  0.1965 -0.1051 -0.0738
    1OPC    C3B72804   7.272  26.875   4.140  0.5671 -0.1724 -0.1735
    1OPC    C4B72805   7.284  26.714   4.563 -0.1066 -0.2003  0.4384
    1OPC    NC372806   8.645  14.865   2.710 -0.1725  0.1605 -0.0404
    1OPC    PO472807   8.692  15.223   2.460  0.1148  0.0509 -0.0572
    1OPC    GL172808   8.555  15.377   2.887  0.3348 -0.0911 -0.1079
    1OPC    GL272809   8.540  15.470   3.254  0.1777 -0.3177  0.0877
    1OPC    C1B72810   8.639  15.306   3.654 -0.0194  0.0749  0.1668
    1OPC    D2B72811   8.803  15.126   4.079 -0.1531  0.4851  0.0437
    1OPC    C3B72812   8.668  15.284   4.656  0.0567  0.0183 -0.1845
    1OPC    C4B72813   8.485  15.715   4.755  0.1949 -0.1363  0.0088
    1OPC    NC372814   6.663   6.650   3.753 -0.3333  0.0645 -0.2868
    1OPC    PO472815   6.913   6.590   3.445 -0.1615  0.1918  0.0593
    1OPC    GL172816   7.116   6.942   3.752  0.0721  0.1723  0.4582
    1OPC    GL272817   7.180   7.056   4.174  0.2510 -0.0556  0.2831
    1OPC    C1B72818   6.987   6.960   4.598 -0.0118  0.1059  0.2638
    1OPC    D2B72819   6.921   6.638   4.948  0.0143 -0.0358  0.0709
    1OPC    C3B72820   6.516   6.693   5.132  0.0198 -0.0039 -0.1809
    1OPC    C4B72821   6.498   7.129   5.180  0.3007  0.3313  0.0100
    1OPC    NC372822  29.117  10.089   2.113  0.2834 -0.1744  0.1043
    1OPC    PO472823  29.454  10.284   2.245 -0.0212  0.0379 -0.1414
    1OPC    GL172824  29.292  10.425   2.584  0.0684 -0.0392 -0.2215
    1OPC    GL272825  29.097  10.432   2.914  0.2442 -0.1134 -0.2506
    1OPC    C1B72826  29.015  10.719   3.175  0.0803  0.0520 -0.0883
    1OPC    D2B72827  28.570  10.743   3.238  0.3276  0.0477  0.2455
    1OPC    C3B72828  28.142  10.928   3.444  0.0112 -0.4021  0.1076
    1OPC    C4B72829  27.728  10.964   3.534 -0.3195 -0.0892  0.1388
    1OPC    NC372830  20.047   4.247   2.725  0.2180  0.0395  0.1804
    1OPC    PO472831  19.979   4.573   3.074  0.0256  0.0793  0.0104
    1OPC    GL172832  20.149   4.490   3.458 -0.2147  0.1743 -0.6168
    1OPC    GL272833  20.161   4.495   3.800  0.0776  0.0778 -0.1360
    1OPC    C1B72834  20.277   4.513   4.177  0.0717 -0.1695  0.2743
    1OPC    D2B72835  20.220   4.301   4.642 -0.0265  0.2189  0.0962
    1OPC    C3B72836  19.829   4.109   4.907  0.2584  0.1307 -0.1946
    1OPC    C4B72837  19.575   3.993   5.293  0.2993 -0.0069  0.2277
    1OPC    NC372838   4.210   7.515   3.151  0.1296  0.0656 -0.1072
    1OPC    PO472839   3.836   7.186   3.000  0.2229 -0.0766 -0.0937
    1OPC    GL172840   3.642   7.302   3.406  0.2648 -0.0615 -0.1696
    1OPC    GL272841   3.351   7.411   3.584 -0.2527  0.0426  0.1423
    1OPC    C1B72842   3.168   7.746   3.982  0.1085  0.1689  0.1735
    1OPC    D2B72843   2.931   7.790   4.334  0.0022  0.3109  0.2891
    1OPC    C3B72844   2.941   7.583   4.753  0.1639 -0.1095 -0.0902
    1OPC    C4B72845   2.753   7.351   5.061 -0.0517  0.0475 -0.0442
    1OPC    NC372846  18.489   9.622   1.980  0.0581 -0.1512  0.0233
    1OPC    PO472847  18.584   9.912   2.244 -0.0283  0.2688 -0.1438
    1OPC    GL172848  18.623  10.120   2.603 -0.1780 -0.0002 -0.3358
    1OPC    GL272849  18.703  10.004   2.786 -0.0046  0.1909 -0.5357
    1OPC    C1B72850  18.754  10.118   3.149 -0.0232  0.2490  0.1334
    1OPC    D2B72851  18.750  10.392   3.550  0.0439  0.0594  0.2437
    1OPC    C3B72852  18.940  10.460   3.927 -0.3412  0.2768  0.1696
    1OPC    C4B72853  18.647  10.277   4.213  0.0972  0.1168  0.1882
    1OPC    NC372854  17.383  21.493   2.002  0.0134  0.1266 -0.1452
    1OPC    PO472855  17.450  21.286   2.418  0.2018 -0.2461  0.0988
    1OPC    GL172856  17.225  21.396   2.725  0.0696 -0.1492  0.1195
    1OPC    GL272857  17.283  21.538   3.068  0.0585  0.1003 -0.1262
    1OPC    C1B72858  17.243  21.490   3.510  0.1784  0.1738  0.1354
    1OPC    D2B72859  17.170  21.569   3.884 -0.3193  0.2361  0.0039
    1OPC    C3B72860  16.923  21.871   4.128  0.1762  0.0595  0.0849
    1OPC    C4B72861  17.000  22.287   4.142 -0.0625  0.0788  0.2315
    1OPC    NC372862  13.119  23.740   2.759 -0.2038 -0.3559  0.1573
    1OPC    PO472863  12.770  23.404   2.540  0.0916 -0.0166 -0.1987
    1OPC    GL172864  12.900  22.955   2.680 -0.3507  0.0138  0.1042
    1OPC    GL272865  12.898  22.611   2.754 -0.1116  0.1385  0.2825
    1OPC    C1B72866  13.069  22.321   3.054 -0.1259 -0.0381  0.0550
    1OPC    D2B72867  13.074  22.390   3.510 -0.3379  0.1615 -0.0927
    1OPC    C3B72868  13.392  22.314   3.928  0.1734  0.0497 -0.1655
    1OPC    C4B72869  13.358  22.111   4.323 -0.0188  0.0189 -0.0177
    1OPC    NC372870   5.380   4.623   2.971  0.0931 -0.2566  0.1031
    1OPC    PO472871   5.031   4.543   2.928 -0.2305  0.3048  0.1281
    1OPC    GL172872   5.016   4.622   3.300  0.1998  0.1461 -0.1479
    1OPC    GL272873   4.848   4.791   3.532 -0.0021 -0.0347  0.3390
    1OPC    C1B72874   4.797   4.836   3.923 -0.0656 -0.3595  0.1233
    1OPC    D2B72875   5.027   4.656   4.300 -0.0558  0.1218  0.1141
    1OPC    C3B72876   5.142   4.307   4.365  0.3533  0.0880 -0.1185
    1OPC    C4B72877   5.300   3.832   4.163  0.0083  0.0201 -0.2337
    1OPC    NC372878  29.625  24.343   2.350 -0.0394  0.0130  0.2249
    1OPC    PO472879  29.816  24.697   2.114 -0.2198  0.0523  0.1171
    1OPC    GL172880  29.617  24.796   2.579 -0.5117 -0.2542  0.0514
    1OPC    GL272881  29.709  24.788   2.910 -0.0874  0.3677  0.1704
    1OPC    C1B72882  29.700  24.510   3.299 -0.1592  0.0153 -0.2348
    1OPC    D2B72883  29.346  24.366   3.562 -0.2334  0.0318 -0.1850
    1OPC    C3B72884  29.035  24.713   3.734 -0.0952 -0.1108 -0.0147
    1OPC    C4B72885  28.653  24.896   3.899 -0.1352  0.1147  0.0586
    1OPC    NC372886   1.877  18.156   1.665 -0.1159  0.1518 -0.1463
    1OPC    PO472887   2.282  18.371   1.740  0.1726 -0.0359 -0.2048
    1OPC    GL172888   2.002  18.480   2.059  0.1718 -0.0864  0.0870
    1OPC    GL272889   1.800  18.824   2.248 -0.2438  0.3110 -0.3249
    1OPC    C1B72890   1.705  18.867   2.637  0.0372  0.0725 -0.1551
    1OPC    D2B72891   1.621  18.952   3.120  0.3228  0.0308 -0.2718
    1OPC    C3B72892   1.889  19.042   3.384 -0.2869 -0.0803 -0.0405
    1OPC    C4B72893   2.100  19.249   3.627  0.2201  0.2522 -0.0184
    1OPC    NC372894  21.637   0.706   2.399  0.0023 -0.0569 -0.1556
    1OPC    PO472895  21.815   0.183   2.538 -0.1811  0.0805  0.0220
    1OPC    GL172896  21.691  -0.019   2.840  0.1677  0.0872  0.1859
    1OPC    GL272897  21.689  -0.263   3.160 -0.1662 -0.1556  0.1834
    1OPC    C1B72898  21.630  -0.594   3.477  0.0432  0.2020  0.1243
    1OPC    D2B72899  21.948  -0.547   3.799 -0.0655  0.0756 -0.1923
    1OPC    C3B72900  22.034  -0.188   3.956  0.3595  0.1669  0.0554
    1OPC    C4B72901  22.452  -0.176   3.929  0.1348  0.1857  0.2620
    1OPC    NC372902  23.405  23.499   2.990 -0.0182  0.3125 -0.0342
    1OPC    PO472903  23.345  23.922   2.969  0.1995  0.1342 -0.4656
    1OPC    GL172904  23.394  24.126   3.203  0.1282 -0.4252 -0.1308
    1OPC    GL272905  23.592  24.391   3.343  0.3145 -0.1926  0.2163
    1OPC    C1B72906  23.596  24.437   3.792 -0.1216 -0.1771 -0.0773
    1OPC    D2B72907  23.461  24.617   4.356 -0.2621  0.4581  0.7087
    1OPC    C3B72908  23.739  24.595   4.665 -0.0803  0.3086 -0.0329
    1OPC    C4B72909  24.055  24.756   4.936 -0.0747  0.0206 -0.1625
    1OPC    NC372910  11.082  23.414   1.519 -0.2420 -0.0290 -0.1004
    1OPC    PO472911  10.755  23.616   1.795  0.0612  0.2472 -0.0802
    1OPC    GL172912  10.510  23.787   2.164  0.2666  0.3312 -0.1061
    1OPC    GL272913  10.712  23.814   2.509  0.3094 -0.1104 -0.0228
    1OPC    C1B72914  10.793  23.616   2.875  0.1737 -0.0659  0.3795
    1OPC    D2B72915  10.652  23.506   3.174  0.0675 -0.2272 -0.1637
    1OPC    C3B72916  10.693  23.701   3.539  0.2170 -0.1109  0.1617
    1OPC    C4B72917  10.332  23.631   3.833 -0.1266  0.0380  0.2271
    1OPC    NC372918  24.020  11.339   1.988  0.0880 -0.1625  0.1712
    1OPC    PO472919  24.121  11.394   2.435 -0.0125 -0.1423 -0.0238
    1OPC    GL172920  24.587  11.241   2.511 -0.0450  0.1257  0.3227
    1OPC    GL272921  24.757  10.949   2.730 -0.4272  0.2278 -0.3059
    1OPC    C1B72922  24.755  10.709   3.062 -0.0287  0.2000 -0.4665
    1OPC    D2B72923  24.570  10.900   3.454 -0.0485  0.0965 -0.1410
    1OPC    C3B72924  24.672  10.651   3.880 -0.0479 -0.1067 -0.2017
    1OPC    C4B72925  24.440  10.349   4.097 -0.3213  0.0995  0.3893
    1OPC    NC372926   9.474  27.347   2.214 -0.2644 -0.0988  0.1948
    1OPC    PO472927   9.263  27.348   2.586 -0.0693 -0.2346 -0.2293
    1OPC    GL172928   9.470  27.109   3.017 -0.3046  0.1466  0.0648
    1OPC    GL272929   9.479  26.797   3.299 -0.3759 -0.0995 -0.1278
    1OPC    C1B72930   9.217  26.689   3.699  0.4122 -0.1786  0.0516
    1OPC    D2B72931   9.213  26.543   4.094  0.4341 -0.1540 -0.1933
    1OPC    C3B72932   8.945  26.217   4.293  0.1566  0.2008  0.2048
    1OPC    C4B72933   8.802  25.796   4.341  0.0130 -0.0887  0.3034
    1OPC    NC372934  23.988  12.954   1.503  0.0659 -0.0977  0.2894
    1OPC    PO472935  24.342  13.064   1.697 -0.2830  0.0608  0.0594
    1OPC    GL172936  24.279  13.188   2.194 -0.0468 -0.0780  0.0237
    1OPC    GL272937  24.131  13.241   2.533  0.1940  0.0070  0.1158
    1OPC    C1B72938  24.072  13.047   2.954 -0.3545 -0.1313 -0.0711
    1OPC    D2B72939  24.144  13.269   3.340 -0.0700 -0.0534  0.2892
    1OPC    C3B72940  23.814  13.504   3.491 -0.1029 -0.1037  0.4285
    1OPC    C4B72941  23.484  13.817   3.531  0.0131 -0.1580 -0.0526
    1OPC    NC372942   6.341  23.649   1.746 -0.1682 -0.3775 -0.2614
    1OPC    PO472943   6.020  23.342   1.814 -0.2156 -0.1127  0.0338
    1OPC    GL172944   5.792  22.973   1.809 -0.1644  0.2581  0.0805
    1OPC    GL272945   5.618  22.949   2.037  0.1351  0.2876 -0.3354
    1OPC    C1B72946   5.589  22.904   2.486 -0.0477 -0.0029  0.3147
    1OPC    D2B72947   5.899  22.951   2.905  0.0211 -0.1903  0.2239
    1OPC    C3B72948   5.988  23.146   3.301  0.4326 -0.2376  0.0027
    1OPC    C4B72949   6.051  23.110   3.751 -0.1514 -0.0480 -0.0412
    1OPC    NC372950  27.544   6.586   2.510  0.0720 -0.1280 -0.0997
    1OPC    PO472951  27.581   6.135   2.448 -0.0365 -0.3230 -0.1178
    1OPC    GL172952  27.534   6.118   2.862 -0.0052 -0.3414  0.1047
    1OPC    GL272953  27.540   5.992   3.155  0.0337  0.2544 -0.2311
    1OPC    C1B72954  27.360   6.083   3.561 -0.1115  0.1309  0.1863
    1OPC    D2B72955  26.944   6.098   3.922 -0.0172 -0.0619  0.0646
    1OPC    C3B72956  26.701   6.167   4.211  0.0047 -0.1171  0.3623
    1OPC    C4B72957  26.552   6.456   4.436  0.1058  0.1061 -0.3790
    1OPC    NC372958  22.379  14.035   2.006 -0.1362 -0.0429  0.1741
    1OPC    PO472959  22.801  13.805   2.025 -0.1463  0.3224  0.1187
    1OPC    GL172960  23.124  14.070   1.981 -0.1556  0.1770  0.0083
    1OPC    GL272961  23.287  14.400   2.111  0.1411 -0.0577  0.1415
    1OPC    C1B72962  23.353  14.488   2.525 -0.0038  0.3269  0.1764
    1OPC    D2B72963  23.514  14.409   2.841 -0.0946 -0.2039  0.1263
    1OPC    C3B72964  23.585  14.516   3.330  0.2100  0.2252 -0.0264
    1OPC    C4B72965  23.828  14.555   3.736  0.2243 -0.0996  0.0097
    1OPC    NC372966   0.237  14.230   1.879 -0.0092  0.1726 -0.0171
    1OPC    PO472967   0.671  14.248   2.125 -0.1005  0.2121 -0.4858
    1OPC    GL172968   0.526  14.275   2.451  0.2694 -0.1437  0.0994
    1OPC    GL272969   0.280  14.322   2.700  0.1625  0.0765 -0.0784
    1OPC    C1B72970   0.310  14.493   3.026 -0.0815  0.3044 -0.0697
    1OPC    D2B72971   0.361  14.822   3.213 -0.1637 -0.0881 -0.1438
    1OPC    C3B72972   0.578  14.803   3.617  0.0821  0.2207 -0.1119
    1OPC    C4B72973   0.851  15.019   3.800  0.1186 -0.2175  0.0104
    1OPC    NC372974   5.885   4.108   2.608  0.2224  0.1111  0.1034
    1OPC    PO472975   5.867   4.079   3.060  0.1931  0.2365  0.1777
    1OPC    GL172976   5.943   3.864   3.435 -0.1210  0.0303 -0.1543
    1OPC    GL272977   5.892   3.837   3.753  0.1914  0.1832  0.1323
    1OPC    C1B72978   5.914   3.807   4.229  0.1474  0.0372 -0.1723
    1OPC    D2B72979   5.559   3.648   4.557  0.0189  0.0484  0.3426
    1OPC    C3B72980   5.302   3.918   4.666  0.1445 -0.1990  0.1992
    1OPC    C4B72981   5.429   4.401   4.847 -0.0988  0.0199 -0.0720
    1OPC    NC372982   1.053  15.352   1.822 -0.0005 -0.1006  0.2330
    1OPC    PO472983   1.394  15.294   1.514 -0.1088  0.0718 -0.0060
    1OPC    GL172984   1.575  15.124   1.857 -0.1219  0.2365  0.0135
    1OPC    GL272985   1.614  14.985   2.125 -0.1433  0.2378  0.0708
    1OPC    C1B72986   1.485  14.816   2.520 -0.1143 -0.1896  0.0806
    1OPC    D2B72987   1.235  14.678   2.830  0.0272  0.3635  0.3717
    1OPC    C3B72988   0.912  14.902   3.025  0.1950  0.1130 -0.3926
    1OPC    C4B72989   0.742  15.207   3.329 -0.3661 -0.3187 -0.2172
    1OPC    NC372990  27.105  27.358   2.570  0.0305 -0.4062  0.1031
    1OPC    PO472991  27.231  27.258   2.942 -0.3420  0.2288  0.2395
    1OPC    GL172992  27.249  27.215   3.361 -0.1057  0.0711 -0.2272
    1OPC    GL272993  27.427  27.253   3.612 -0.0998 -0.3120  0.1259
    1OPC    C1B72994  27.622  27.108   3.910  0.0509  0.1964  0.0309
    1OPC    D2B72995  27.967  26.919   3.992  0.1681 -0.1191 -0.0121
    1OPC    C3B72996  28.187  26.517   3.996 -0.1764 -0.4844 -0.0771
    1OPC    C4B72997  28.327  26.304   4.243  0.0715  0.2135 -0.1638
    1OPC    NC372998   3.054  11.340   2.715  0.1783 -0.1179 -0.3513
    1OPC    PO472999   2.794  11.060   2.786  0.0440 -0.2155  0.2483
    1OPC    GL173000   2.563  10.658   2.991  0.0510  0.2278  0.1433
    1OPC    GL273001   2.555  10.278   3.184  0.1641  0.0725 -0.0663
    1OPC    C1B73002   2.322  10.122   3.500  0.2059 -0.3080  0.0348
    1OPC    D2B73003   2.186  10.241   3.930  0.0688  0.1465 -0.2823
    1OPC    C3B73004   1.823   9.936   4.049  0.1745 -0.1411  0.0410
    1OPC    C4B73005   1.906   9.574   3.972  0.0111 -0.4594 -0.0945
    1OPC    NC373006  25.327  27.324   2.828 -0.0263  0.0792  0.0544
    1OPC    PO473007  24.878  27.335   2.968 -0.1306 -0.2172  0.4799
    1OPC    GL173008  25.029  27.395   3.393  0.1574 -0.1924  0.2019
    1OPC    GL273009  25.192  27.375   3.648  0.1787  0.1150 -0.1268
    1OPC    C1B73010  25.354  27.624   3.898  0.1877  0.2287 -0.0390
    1OPC    D2B73011  25.332  27.853   4.346 -0.0594 -0.2585 -0.1484
    1OPC    C3B73012  25.601  27.642   4.601  0.0562  0.3907  0.3988
    1OPC    C4B73013  25.915  27.649   4.944  0.0473  0.2333 -0.1416
    1OPC    NC373014  16.670   1.345   3.441  0.0553  0.1889  0.2632
    1OPC    PO473015  16.409   1.723   3.198  0.0438  0.5666  0.1303
    1OPC    GL173016  16.567   1.833   3.650  0.1126  0.1670 -0.0299
    1OPC    GL273017  16.798   2.004   3.901 -0.3112 -0.0550  0.0947
    1OPC    C1B73018  17.019   2.022   4.356  0.0592 -0.0017  0.0070
    1OPC    D2B73019  17.197   1.984   4.752 -0.1582 -0.1627  0.0131
    1OPC    C3B73020  17.044   1.653   5.041  0.0153 -0.0210 -0.0814
    1OPC    C4B73021  17.143   1.413   5.358  0.0910  0.0686 -0.2179
    1OPC    NC373022   4.970  10.940   2.381  0.0250  0.2463 -0.2768
    1OPC    PO473023   5.173  11.353   2.528  0.0848  0.3401 -0.1131
    1OPC    GL173024   4.974  11.294   2.823 -0.2921  0.0762  0.0140
    1OPC    GL273025   4.845  11.082   3.076 -0.2481  0.0772 -0.0178
    1OPC    C1B73026   4.679  11.245   3.581 -0.3595  0.0321 -0.1994
    1OPC    D2B73027   4.631  11.390   3.999  0.4198 -0.1598 -0.0557
    1OPC    C3B73028   4.557  11.874   4.131  0.2182  0.0517 -0.1453
    1OPC    C4B73029   4.509  12.271   4.057  0.4108 -0.0582  0.0243
    1OPC    NC373030   0.972  18.128   1.128 -0.0956  0.1458  0.1147
    1OPC    PO473031   1.469  18.031   1.370 -0.0061  0.0562 -0.1043
    1OPC    GL173032   1.337  17.983   1.811  0.0439  0.1835 -0.0126
    1OPC    GL273033   1.281  17.815   2.150 -0.0215 -0.0659 -0.0234
    1OPC    C1B73034   1.234  17.989   2.561  0.0946 -0.0976  0.0852
    1OPC    D2B73035   1.176  18.108   2.969  0.2324 -0.1416  0.1894
    1OPC    C3B73036   1.089  18.359   3.334 -0.4244 -0.1076  0.1253
    1OPC    C4B73037   0.843  18.746   3.457  0.3080 -0.0476  0.5143
    1OPC    NC373038   4.465   5.479   2.526  0.0573 -0.0324  0.1510
    1OPC    PO473039   4.863   5.278   2.761 -0.2528  0.0530  0.2597
    1OPC    GL173040   5.145   5.056   3.081  0.1189 -0.0417  0.3462
    1OPC    GL273041   5.307   5.080   3.440 -0.1833 -0.1337 -0.1215
    1OPC    C1B73042   5.320   4.950   3.856 -0.0679 -0.1187  0.2338
    1OPC    D2B73043   5.281   5.102   4.267 -0.3973 -0.1954 -0.0427
    1OPC    C3B73044   4.969   5.175   4.501 -0.0799 -0.0174 -0.4500
    1OPC    C4B73045   5.003   5.236   4.990 -0.3282  0.4114  0.4282
    1OPC    NC373046   7.003  23.027   1.774 -0.0238 -0.0256 -0.2789
    1OPC    PO473047   6.835  22.855   2.123  0.1285 -0.0279 -0.1402
    1OPC    GL173048   6.735  23.150   2.405 -0.0278  0.0908  0.2153
    1OPC    GL273049   6.779  23.186   2.707  0.0587  0.1366  0.1013
    1OPC    C1B73050   6.837  22.966   3.053  0.0083 -0.0976  0.0472
    1OPC    D2B73051   7.131  22.707   3.208 -0.1329 -0.0472 -0.1532
    1OPC    C3B73052   7.171  22.513   3.636  0.1244  0.0114  0.1021
    1OPC    C4B73053   6.642  22.426   3.847  0.1329  0.0482  0.2744
    1OPC    NC373054   4.486   3.716   2.636 -0.2681 -0.0255 -0.2209
    1OPC    PO473055   4.612   3.857   3.062  0.0553  0.1183  0.0934
    1OPC    GL173056   4.491   4.060   3.410  0.1424 -0.0268  0.0713
    1OPC    GL273057   4.724   4.274   3.571 -0.1757 -0.1538  0.2041
    1OPC    C1B73058   5.136   4.481   3.766  0.1181 -0.0985 -0.0219
    1OPC    D2B73059   5.459   4.487   4.016 -0.0438  0.1935 -0.3105
    1OPC    C3B73060   5.552   4.713   4.344 -0.1155  0.0188 -0.0162
    1OPC    C4B73061   5.629   4.964   4.693 -0.0415 -0.0531 -0.0137
    1OPC    NC373062  12.279  21.169   2.141 -0.0202  0.0693 -0.2459
    1OPC    PO473063  12.366  21.553   2.137 -0.0077  0.0754  0.3387
    1OPC    GL173064  12.118  21.671   2.493  0.0302 -0.0621  0.2582
    1OPC    GL273065  12.129  21.736   2.764  0.1372  0.1178 -0.2630
    1OPC    C1B73066  12.013  21.821   3.121  0.4160  0.3070  0.2041
    1OPC    D2B73067  11.922  21.988   3.410  0.0459 -0.2157  0.0549
    1OPC    C3B73068  11.994  21.708   3.723 -0.1552  0.0399 -0.1595
    1OPC    C4B73069  12.202  21.397   3.959  0.0955 -0.1060 -0.2105
    1OPC    NC373070   1.045  19.373   1.126  0.0478  0.1920 -0.0168
    1OPC    PO473071   1.092  19.168   1.579  0.2793  0.2995 -0.0342
    1OPC    GL173072   1.054  19.082   2.045 -0.1009 -0.1911  0.0337
    1OPC    GL273073   1.035  18.803   2.351 -0.1241 -0.0601 -0.0400
    1OPC    C1B73074   0.979  18.526   2.727 -0.1377 -0.0615 -0.0086
    1OPC    D2B73075   1.255  18.703   2.982  0.1879 -0.1524 -0.1567
    1OPC    C3B73076   1.603  18.446   3.015 -0.3049  0.1895  0.0153
    1OPC    C4B73077   1.632  18.002   3.061  0.1422 -0.0933 -0.1554
    1OPC    NC373078  12.003   8.095   3.614 -0.0167  0.1814  0.1301
    1OPC    PO473079  11.623   7.853   3.470 -0.0227 -0.3328 -0.0984
    1OPC    GL173080  11.586   7.845   3.876 -0.1376 -0.0101 -0.0014
    1OPC    GL273081  11.465   7.682   4.083 -0.1221  0.0522 -0.0314
    1OPC    C1B73082  11.460   7.566   4.409 -0.1316  0.4305  0.2600
    1OPC    D2B73083  11.559   7.324   4.835 -0.2240 -0.3109  0.2244
    1OPC    C3B73084  11.596   7.589   5.251 -0.1056 -0.0400  0.0675
    1OPC    C4B73085  11.490   7.421   5.568  0.1661 -0.0962  0.1509
    1OPC    NC373086  21.922  25.708   2.712 -0.0391 -0.2995  0.1471
    1OPC    PO473087  21.548  25.648   2.555  0.1029 -0.0536 -0.3394
    1OPC    GL173088  21.346  25.703   2.957  0.2805 -0.1238 -0.0101
    1OPC    GL273089  21.026  25.837   3.127  0.2642 -0.1770 -0.0784
    1OPC    C1B73090  21.104  25.691   3.606  0.0662 -0.4126  0.0737
    1OPC    D2B73091  21.479  25.741   3.788 -0.1403  0.2507  0.2677
    1OPC    C3B73092  21.702  25.985   4.030 -0.2815  0.4999  0.2117
    1OPC    C4B73093  22.063  26.110   4.045  0.1814 -0.1255 -0.0937
    1OPC    NC373094  26.729   8.047   1.767 -0.3364  0.2562 -0.2332
    1OPC    PO473095  26.408   8.243   2.022  0.0657  0.2921  0.0495
    1OPC    GL173096  26.692   8.101   2.310  0.2681  0.0709 -0.0954
    1OPC    GL273097  26.846   8.032   2.622 -0.0358 -0.2361 -0.2696
    1OPC    C1B73098  26.840   7.879   3.065  0.0237  0.0207  0.3326
    1OPC    D2B73099  26.661   7.866   3.480 -0.0084  0.0973 -0.1152
    1OPC    C3B73100  26.918   7.766   3.872 -0.4222  0.0239  0.1804
    1OPC    C4B73101  26.929   7.768   4.403 -0.0791 -0.0434  0.0805
    1OPC    NC373102   7.647  26.233   2.357  0.0070  0.1891 -0.0902
    1OPC    PO473103   7.660  25.868   2.345  0.1788 -0.0288 -0.2394
    1OPC    GL173104   7.436  25.770   2.632 -0.1695 -0.0849  0.1971
    1OPC    GL273105   7.329  25.620   2.931 -0.1761 -0.1454  0.2068
    1OPC    C1B73106   7.186  25.612   3.350 -0.0803 -0.0485 -0.2193
    1OPC    D2B73107   7.197  25.936   3.576 -0.1129  0.2548  0.0584
    1OPC    C3B73108   7.256  25.908   4.084 -0.1731  0.1150 -0.1585
    1OPC    C4B73109   7.359  25.870   4.507  0.2670 -0.3368  0.1434
    1OPC    NC373110   9.472   4.098   3.536  0.1479 -0.2504 -0.3293
    1OPC    PO473111   9.345   3.849   3.160 -0.4078  0.0462  0.0457
    1OPC    GL173112   9.116   3.795   3.455  0.2597  0.0691 -0.0995
    1OPC    GL273113   9.055   3.867   3.793  0.0835 -0.1234  0.0816
    1OPC    C1B73114   8.847   3.916   4.145  0.0692 -0.0689 -0.1882
    1OPC    D2B73115   8.850   3.927   4.642  0.1309 -0.0324 -0.1504
    1OPC    C3B73116   8.777   4.329   4.910  0.0484  0.2028  0.1299
    1OPC    C4B73117   8.714   4.294   5.331 -0.1594 -0.0547  0.0068
    1OPC    NC373118   9.898  29.983   3.017  0.3420 -0.1711 -0.1842
    1OPC    PO473119  10.247  30.021   3.270 -0.2012  0.2398 -0.2176
    1OPC    GL173120  10.550  29.860   3.441  0.0311  0.1050 -0.1706
    1OPC    GL273121  10.792  29.770   3.789 -0.0154 -0.0112  0.1277
    1OPC    C1B73122  10.665  29.799   4.323  0.0868 -0.0788  0.0270
    1OPC    D2B73123  10.950  30.051   4.498 -0.1415  0.1817 -0.2988
    1OPC    C3B73124  11.144  29.845   4.783 -0.0862  0.0096 -0.0686
    1OPC    C4B73125  11.190  29.421   4.868 -0.1960  0.3118  0.1162
    1OPC    NC373126  27.742  25.783   2.845  0.0589 -0.1216 -0.0171
    1OPC    PO473127  28.044  25.564   2.901 -0.1155  0.0488  0.0493
    1OPC    GL173128  28.048  25.223   3.138 -0.1374  0.0597  0.2855
    1OPC    GL273129  27.956  25.180   3.467  0.0606  0.2379 -0.0753
    1OPC    C1B73130  28.184  25.053   3.804  0.1420 -0.0308  0.2011
    1OPC    D2B73131  28.301  25.113   4.234 -0.4866  0.1248 -0.1355
    1OPC    C3B73132  28.731  24.902   4.378  0.0158 -0.0142  0.1870
    1OPC    C4B73133  28.921  24.669   4.559 -0.1820  0.1531 -0.1515
    1OPC    NC373134   3.435   0.524   2.768 -0.0440  0.1812  0.0274
    1OPC    PO473135   3.608   0.885   3.022 -0.0573 -0.1593  0.0150
    1OPC    GL173136   3.683   1.072   3.402  0.1644  0.0142  0.3111
    1OPC    GL273137   3.495   1.111   3.699  0.0242 -0.2019  0.2995
    1OPC    C1B73138   3.470   1.141   4.136 -0.1011  0.0133 -0.0994
    1OPC    D2B73139   3.767   1.385   4.471 -0.0632  0.0517  0.2300
    1OPC    C3B73140   3.656   1.307   4.855  0.0986 -0.2335  0.2509
    1OPC    C4B73141   3.411   1.417   5.188 -0.4159  0.1294  0.0280
    1OPC    NC373142   8.547   4.896   3.126 -0.1557  0.0771 -0.0172
    1OPC    PO473143   8.830   5.070   3.469 -0.3455  0.2895  0.2930
    1OPC    GL173144   8.716   5.264   3.821 -0.1755 -0.0667 -0.1000
    1OPC    GL273145   8.551   5.190   4.182  0.0850  0.3665  0.0831
    1OPC    C1B73146   8.359   5.176   4.547 -0.1781 -0.0413  0.2807
    1OPC    D2B73147   8.000   5.024   4.672  0.0126 -0.2531 -0.1171
    1OPC    C3B73148   7.979   4.727   5.015  0.1631 -0.0749  0.0236
    1OPC    C4B73149   7.862   4.314   5.004  0.1443 -0.4497 -0.4377
    1OPC    NC373150   6.123   4.901   2.853 -0.3090 -0.2062  0.1135
    1OPC    PO473151   5.825   4.575   2.822  0.0971  0.2682  0.3994
    1OPC    GL173152   5.943   4.498   3.317  0.1393  0.0956  0.2334
    1OPC    GL273153   5.933   4.371   3.696  0.1145 -0.0216  0.1934
    1OPC    C1B73154   5.980   4.356   4.107  0.1091 -0.2365 -0.3386
    1OPC    D2B73155   6.043   4.583   4.470 -0.2551  0.1844  0.2539
    1OPC    C3B73156   5.946   4.565   4.967 -0.0543 -0.1037 -0.1055
    1OPC    C4B73157   6.216   4.301   5.163 -0.3048  0.2206  0.0360
    1OPC    NC373158  29.303  12.004   1.773 -0.0594 -0.3440 -0.1132
    1OPC    PO473159  29.390  11.794   2.138  0.0962 -0.5819 -0.1616
    1OPC    GL173160  29.488  11.649   2.553 -0.2712 -0.4232 -0.0776
    1OPC    GL273161  29.685  11.616   2.703 -0.1173 -0.2047  0.0184
    1OPC    C1B73162  29.728  11.769   3.099 -0.0378  0.0827  0.0230
    1OPC    D2B73163  29.635  11.977   3.401  0.0333 -0.2721  0.1375
    1OPC    C3B73164  29.689  11.757   3.790  0.0911 -0.1072 -0.0505
    1OPC    C4B73165  29.994  11.588   4.011 -0.0026  0.0891  0.4455
    1OPC    NC373166   2.896   2.339   3.357  0.0222 -0.0845 -0.1420
    1OPC    PO473167   3.167   2.269   2.995  0.1703  0.2497 -0.0758
    1OPC    GL173168   3.524   2.372   3.324 -0.1669 -0.3092  0.1811
    1OPC    GL273169   3.693   2.643   3.418  0.0523 -0.1511  0.2113
    1OPC    C1B73170   3.852   2.965   3.795 -0.1050  0.4138 -0.0984
    1OPC    D2B73171   4.275   3.066   3.911 -0.0001  0.0501 -0.3482
    1OPC    C3B73172   4.378   3.343   4.237  0.1964  0.2169  0.1059
    1OPC    C4B73173   4.745   3.334   4.510 -0.0649  0.3962  0.3364
    1OPC    NC373174  28.498  17.695   1.468 -0.0960 -0.0755 -0.1614
    1OPC    PO473175  28.077  17.489   1.483 -0.1830  0.0999  0.0122
    1OPC    GL173176  27.891  17.596   1.850 -0.1506 -0.1607 -0.0217
    1OPC    GL273177  27.990  17.678   2.161 -0.2389 -0.0774 -0.2006
    1OPC    C1B73178  28.253  17.574   2.469  0.2625  0.1975  0.0740
    1OPC    D2B73179  28.329  17.329   2.763  0.2160 -0.0889 -0.2532
    1OPC    C3B73180  28.066  16.926   2.816 -0.0172 -0.1097  0.1176
    1OPC    C4B73181  27.901  16.459   2.931 -0.0723  0.0238 -0.1099
    1OPC    NC373182  12.913   3.747   3.085  0.0301 -0.1518 -0.0125
    1OPC    PO473183  12.770   3.471   3.407  0.1473  0.1576 -0.2995
    1OPC    GL173184  12.669   3.781   3.700 -0.0840 -0.2042  0.2997
    1OPC    GL273185  12.611   3.900   3.999 -0.0041 -0.0530  0.1548
    1OPC    C1B73186  12.680   3.946   4.552 -0.0519 -0.1903  0.0831
    1OPC    D2B73187  12.713   3.989   5.018  0.1207 -0.0113 -0.3112
    1OPC    C3B73188  12.578   3.743   5.303 -0.5756 -0.0700 -0.0442
    1OPC    C4B73189  12.249   3.690   5.557  0.3545  0.2196  0.0445
    1OPC    NC373190  13.852   0.854   2.866 -0.0001 -0.0961  0.1902
    1OPC    PO473191  13.710   0.968   3.324  0.0745  0.0487  0.1028
    1OPC    GL173192  13.755   0.798   3.739 -0.1849  0.2003 -0.2035
    1OPC    GL273193  13.764   0.706   4.113 -0.4590  0.0172 -0.0157
    1OPC    C1B73194  13.710   0.852   4.546 -0.0313 -0.3965 -0.3412
    1OPC    D2B73195  14.020   0.756   4.885  0.1929  0.0832  0.1135
    1OPC    C3B73196  13.910   0.698   5.408 -0.1375  0.1635 -0.2065
    1OPC    C4B73197  13.853   0.946   5.807  0.5079  0.2944 -0.1070
    1OPC    NC373198   4.249  18.058   1.194  0.0528  0.1362 -0.1822
    1OPC    PO473199   4.340  18.485   1.384 -0.0416  0.1704  0.3627
    1OPC    GL173200   4.383  18.574   1.862 -0.1329  0.0415  0.3722
    1OPC    GL273201   4.643  18.738   2.151 -0.1150  0.3540  0.1481
    1OPC    C1B73202   4.389  18.851   2.549  0.1486 -0.0143 -0.1050
    1OPC    D2B73203   4.184  18.950   2.931 -0.0579  0.0880 -0.0080
    1OPC    C3B73204   4.023  18.581   3.297 -0.0488 -0.1541  0.0594
    1OPC    C4B73205   3.827  18.294   3.467 -0.1609 -0.1541 -0.3829
    1OPC    NC373206  26.484  26.909   2.088  0.1489  0.0899  0.2342
    1OPC    PO473207  26.605  26.872   2.517 -0.0353  0.4545  0.1691
    1OPC    GL173208  26.712  26.922   2.885  0.3877  0.3324  0.2604
    1OPC    GL273209  26.722  26.990   3.185 -0.2141 -0.3808  0.2317
    1OPC    C1B73210  26.418  26.922   3.494  0.3560 -0.0448 -0.1094
    1OPC    D2B73211  26.185  26.991   3.935  0.0246 -0.3855  0.1313
    1OPC    C3B73212  26.310  26.984   4.339 -0.0769  0.0397  0.0233
    1OPC    C4B73213  26.574  27.040   4.708  0.2346 -0.2416 -0.1293
    1OPC    NC373214  21.024  14.966   2.119 -0.0777  0.1549 -0.2672
    1OPC    PO473215  21.182  14.560   2.178  0.1134 -0.1709  0.1466
    1OPC    GL173216  21.418  14.515   2.497 -0.0810 -0.0140 -0.1345
    1OPC    GL273217  21.545  14.565   2.752  0.0145  0.2187  0.0039
    1OPC    C1B73218  21.653  14.651   3.179  0.1891 -0.1893 -0.0588
    1OPC    D2B73219  21.854  14.635   3.530 -0.2312  0.2558 -0.1004
    1OPC    C3B73220  21.930  14.245   3.669 -0.1044  0.0008 -0.1705
    1OPC    C4B73221  22.031  13.844   3.774  0.1434  0.2424 -0.1147
    1OPC    NC373222  29.531  23.568   2.377  0.0064 -0.2924  0.2001
    1OPC    PO473223  29.672  23.925   2.605 -0.4068  0.0427  0.0324
    1OPC    GL173224  29.995  23.609   2.703  0.2144  0.0338 -0.0256
    1OPC    GL273225  30.102  23.613   2.935  0.0540  0.0543  0.0320
    1OPC    C1B73226  30.195  23.636   3.461  0.0062  0.1233 -0.3624
    1OPC    D2B73227  30.210  23.215   3.702  0.3958  0.1397 -0.1390
    1OPC    C3B73228  30.245  22.944   3.427 -0.0982  0.0632  0.0790
    1OPC    C4B73229  29.906  22.762   3.067  0.0897  0.0292  0.2106
    1OPC    NC373230  25.793  24.901   2.051  0.1260  0.2207  0.1721
    1OPC    PO473231  25.459  24.852   2.323 -0.0924 -0.6190 -0.3877
    1OPC    GL173232  25.478  24.778   2.816 -0.0549 -0.1470  0.0670
    1OPC    GL273233  25.600  24.608   3.239  0.0504 -0.0927 -0.3491
    1OPC    C1B73234  25.846  24.570   3.651 -0.2990  0.1748 -0.1600
    1OPC    D2B73235  25.993  24.625   4.047 -0.3246  0.0980 -0.1579
    1OPC    C3B73236  26.315  24.635   4.330 -0.2581  0.2233 -0.0311
    1OPC    C4B73237  26.560  24.348   4.529  0.0476  0.0252  0.2236
    1OPC    NC373238  19.769  29.357   2.700  0.2411 -0.0774  0.1706
    1OPC    PO473239  19.771  28.992   3.046  0.3148  0.1426 -0.2300
    1OPC    GL173240  20.012  28.960   3.299 -0.0856 -0.0983 -0.2314
    1OPC    GL273241  20.095  29.129   3.551 -0.2133  0.1397 -0.1201
    1OPC    C1B73242  20.255  29.233   4.040  0.1085  0.1990 -0.3219
    1OPC    D2B73243  20.624  29.306   4.388  0.3164  0.0108  0.1738
    1OPC    C3B73244  20.770  29.720   4.530 -0.0168  0.1879  0.0210
    1OPC    C4B73245  21.302  29.906   4.469  0.1395  0.2471 -0.1838
  30.15623  30.15623   9.40520
